<?xml version="1.0" encoding="UTF-8"?>

<!-- generated on 2025-06-28 15:05:46 by Eclipse SUMO sumo Version 1.19.0
<configuration xmlns:xsi="http://www.w3.org/2001/XMLSchema-instance" xsi:noNamespaceSchemaLocation="http://sumo.dlr.de/xsd/sumoConfiguration.xsd">

    <input>
        <net-file value="../model/Network.net.xml"/>
        <route-files value="../model/CarRoutes.rou.xml"/>
        <additional-files value="../model/BusStops.add.xml"/>
    </input>

    <output>
        <summary-output value="../model/logs/Log_summary.xml"/>
        <summary-output.period value="300"/>
        <tripinfo-output value="../model/logs/TripInfos.xml"/>
    </output>

    <time>
        <begin value="0"/>
        <end value="86400"/>
        <step-length value="1"/>
    </time>

    <processing>
        <ignore-junction-blocker value="0.1"/>
        <time-to-teleport value="-1"/>
        <waiting-time-memory value="6000"/>
    </processing>

    <report>
        <verbose value="true"/>
        <no-step-log value="true"/>
    </report>

    <traci_server>
        <remote-port value="64017"/>
    </traci_server>

    <gui_only>
        <quit-on-end value="true"/>
        <start value="true"/>
    </gui_only>

</configuration>
-->

<tripinfos xmlns:xsi="http://www.w3.org/2001/XMLSchema-instance" xsi:noNamespaceSchemaLocation="http://sumo.dlr.de/xsd/tripinfo_file.xsd">
    <tripinfo id="VEH_5" depart="12.00" departLane="183049957#0_1" departPos="5.10" departSpeed="0.00" departDelay="0.00" arrival="28.00" arrivalLane="331752492#2_1" arrivalPos="66.46" arrivalSpeed="13.19" duration="16.00" routeLength="112.21" waitingTime="0.00" waitingCount="0" stopTime="0.00" timeLoss="6.88" rerouteNo="0" devices="tripinfo_VEH_5" vType="sumo_car" speedFactor="1.08" vaporized=""/>
    <tripinfo id="VEH_7" depart="16.00" departLane="183049957#0_1" departPos="5.10" departSpeed="0.00" departDelay="1.00" arrival="33.00" arrivalLane="331752492#2_1" arrivalPos="66.46" arrivalSpeed="11.25" duration="17.00" routeLength="112.21" waitingTime="0.00" waitingCount="0" stopTime="0.00" timeLoss="6.11" rerouteNo="0" devices="tripinfo_VEH_7" vType="sumo_car" speedFactor="0.83" vaporized=""/>
    <tripinfo id="VEH_9" depart="20.00" departLane="183049957#0_1" departPos="5.10" departSpeed="0.00" departDelay="3.00" arrival="37.00" arrivalLane="331752492#2_1" arrivalPos="66.46" arrivalSpeed="12.23" duration="17.00" routeLength="112.21" waitingTime="0.00" waitingCount="0" stopTime="0.00" timeLoss="6.69" rerouteNo="0" devices="tripinfo_VEH_9" vType="sumo_car" speedFactor="0.89" vaporized=""/>
    <tripinfo id="VEH_11" depart="26.00" departLane="183049957#0_1" departPos="14.45" departSpeed="0.00" departDelay="5.00" arrival="46.00" arrivalLane="331752492#2_1" arrivalPos="66.46" arrivalSpeed="9.85" duration="20.00" routeLength="102.86" waitingTime="0.00" waitingCount="0" stopTime="0.00" timeLoss="9.10" rerouteNo="0" devices="tripinfo_VEH_11" vType="sumo_truck" speedFactor="0.93" vaporized=""/>
    <tripinfo id="VEH_17" depart="32.00" departLane="183049957#0_1" departPos="5.10" departSpeed="0.00" departDelay="5.00" arrival="49.00" arrivalLane="331752492#2_1" arrivalPos="66.46" arrivalSpeed="12.52" duration="17.00" routeLength="112.21" waitingTime="0.00" waitingCount="0" stopTime="0.00" timeLoss="6.58" rerouteNo="0" devices="tripinfo_VEH_17" vType="sumo_car" speedFactor="0.93" vaporized=""/>
    <tripinfo id="VEH_20" depart="36.00" departLane="183049957#0_1" departPos="5.10" departSpeed="0.00" departDelay="3.00" arrival="52.00" arrivalLane="331752492#2_1" arrivalPos="66.46" arrivalSpeed="12.96" duration="16.00" routeLength="112.21" waitingTime="0.00" waitingCount="0" stopTime="0.00" timeLoss="6.69" rerouteNo="0" devices="tripinfo_VEH_20" vType="sumo_car" speedFactor="0.94" vaporized=""/>
    <tripinfo id="VEH_22" depart="42.00" departLane="183049957#0_1" departPos="5.10" departSpeed="0.00" departDelay="0.00" arrival="58.00" arrivalLane="331752492#2_1" arrivalPos="66.46" arrivalSpeed="13.76" duration="16.00" routeLength="112.21" waitingTime="0.00" waitingCount="0" stopTime="0.00" timeLoss="6.92" rerouteNo="0" devices="tripinfo_VEH_22" vType="sumo_car" speedFactor="1.02" vaporized=""/>
    <tripinfo id="VEH_14" depart="23.00" departLane="921020465#1_1" departPos="5.10" departSpeed="0.00" departDelay="0.00" arrival="68.00" arrivalLane="E4_1" arrivalPos="50.96" arrivalSpeed="13.76" duration="45.00" routeLength="425.49" waitingTime="0.00" waitingCount="0" stopTime="0.00" timeLoss="8.11" rerouteNo="0" devices="tripinfo_VEH_14" vType="sumo_car" speedFactor="1.05" vaporized=""/>
    <tripinfo id="VEH_40" depart="69.00" departLane="183049957#0_1" departPos="5.10" departSpeed="0.00" departDelay="0.00" arrival="84.00" arrivalLane="331752492#2_1" arrivalPos="66.46" arrivalSpeed="13.25" duration="15.00" routeLength="112.21" waitingTime="0.00" waitingCount="0" stopTime="0.00" timeLoss="6.47" rerouteNo="0" devices="tripinfo_VEH_40" vType="sumo_car" speedFactor="1.10" vaporized=""/>
    <tripinfo id="VEH_39" depart="72.00" departLane="921020465#1_1" departPos="5.10" departSpeed="0.00" departDelay="6.00" arrival="94.00" arrivalLane="183419043#1_1" arrivalPos="11.49" arrivalSpeed="10.69" duration="22.00" routeLength="172.24" waitingTime="0.00" waitingCount="0" stopTime="0.00" timeLoss="9.16" rerouteNo="0" devices="tripinfo_VEH_39" vType="sumo_car" speedFactor="1.18" vaporized=""/>
    <tripinfo id="VEH_42" depart="78.00" departLane="921020465#1_1" departPos="5.10" departSpeed="0.00" departDelay="9.00" arrival="104.00" arrivalLane="183419043#1_1" arrivalPos="11.49" arrivalSpeed="12.06" duration="26.00" routeLength="172.24" waitingTime="2.00" waitingCount="1" stopTime="0.00" timeLoss="12.47" rerouteNo="0" devices="tripinfo_VEH_42" vType="sumo_car" speedFactor="1.03" vaporized=""/>
    <tripinfo id="VEH_54" depart="85.00" departLane="-1169441386_1" departPos="5.10" departSpeed="0.00" departDelay="0.00" arrival="104.00" arrivalLane="694116204#2_2" arrivalPos="45.20" arrivalSpeed="13.39" duration="19.00" routeLength="175.49" waitingTime="0.00" waitingCount="0" stopTime="0.00" timeLoss="5.93" rerouteNo="0" devices="tripinfo_VEH_54" vType="sumo_car" speedFactor="1.02" vaporized=""/>
    <tripinfo id="VEH_53" depart="85.00" departLane="183049957#0_1" departPos="14.45" departSpeed="0.00" departDelay="0.00" arrival="105.00" arrivalLane="331752492#2_1" arrivalPos="66.46" arrivalSpeed="9.81" duration="20.00" routeLength="102.86" waitingTime="0.00" waitingCount="0" stopTime="0.00" timeLoss="8.59" rerouteNo="0" devices="tripinfo_VEH_53" vType="sumo_truck" speedFactor="1.08" vaporized=""/>
    <tripinfo id="VEH_44" depart="84.00" departLane="921020465#1_1" departPos="5.10" departSpeed="0.00" departDelay="13.00" arrival="106.00" arrivalLane="183419043#1_1" arrivalPos="11.49" arrivalSpeed="12.69" duration="22.00" routeLength="172.24" waitingTime="0.00" waitingCount="0" stopTime="0.00" timeLoss="8.80" rerouteNo="0" devices="tripinfo_VEH_44" vType="sumo_car" speedFactor="1.09" vaporized=""/>
    <tripinfo id="VEH_45" depart="85.00" departLane="921020465#1_1" departPos="5.10" departSpeed="0.00" departDelay="12.00" arrival="111.00" arrivalLane="183419043#1_1" arrivalPos="11.49" arrivalSpeed="12.08" duration="26.00" routeLength="172.24" waitingTime="1.00" waitingCount="1" stopTime="0.00" timeLoss="12.36" rerouteNo="0" devices="tripinfo_VEH_45" vType="sumo_car" speedFactor="1.04" vaporized=""/>
    <tripinfo id="VEH_46" depart="74.00" departLane="-1169441386_1" departPos="2.30" departSpeed="0.00" departDelay="0.00" arrival="114.00" arrivalLane="183419043#1_1" arrivalPos="11.49" arrivalSpeed="12.82" duration="40.00" routeLength="131.94" waitingTime="20.00" waitingCount="1" stopTime="0.00" timeLoss="30.62" rerouteNo="0" devices="tripinfo_VEH_46" vType="sumo_motorcycle" speedFactor="1.04" vaporized=""/>
    <tripinfo id="VEH_68" depart="107.00" departLane="183049957#0_1" departPos="5.10" departSpeed="0.00" departDelay="0.00" arrival="123.00" arrivalLane="331752492#2_1" arrivalPos="66.46" arrivalSpeed="12.14" duration="16.00" routeLength="112.21" waitingTime="0.00" waitingCount="0" stopTime="0.00" timeLoss="6.53" rerouteNo="0" devices="tripinfo_VEH_68" vType="sumo_car" speedFactor="0.91" vaporized=""/>
    <tripinfo id="VEH_75" depart="111.00" departLane="183049957#0_1" departPos="5.10" departSpeed="0.00" departDelay="0.00" arrival="127.00" arrivalLane="331752492#2_1" arrivalPos="66.46" arrivalSpeed="13.17" duration="16.00" routeLength="112.21" waitingTime="0.00" waitingCount="0" stopTime="0.00" timeLoss="6.78" rerouteNo="0" devices="tripinfo_VEH_75" vType="sumo_car" speedFactor="1.06" vaporized=""/>
    <tripinfo id="VEH_16" depart="27.00" departLane="758088375#0_1" departPos="5.10" departSpeed="0.00" departDelay="0.00" arrival="129.00" arrivalLane="25973410#1_1" arrivalPos="32.08" arrivalSpeed="7.88" duration="102.00" routeLength="75.29" waitingTime="84.00" waitingCount="1" stopTime="0.00" timeLoss="92.41" rerouteNo="0" devices="tripinfo_VEH_16" vType="sumo_car" speedFactor="0.99" vaporized=""/>
    <tripinfo id="VEH_10" depart="18.00" departLane="-25973410#1_1" departPos="2.30" departSpeed="0.00" departDelay="0.00" arrival="130.00" arrivalLane="-758088375#0_1" arrivalPos="24.98" arrivalSpeed="7.33" duration="112.00" routeLength="78.06" waitingTime="94.00" waitingCount="1" stopTime="0.00" timeLoss="101.58" rerouteNo="0" devices="tripinfo_VEH_10" vType="sumo_motorcycle" speedFactor="0.94" vaporized=""/>
    <tripinfo id="VEH_13" depart="23.00" departLane="-E4_1" departPos="5.10" departSpeed="0.00" departDelay="0.00" arrival="130.00" arrivalLane="-E2_1" arrivalPos="20.13" arrivalSpeed="10.62" duration="107.00" routeLength="88.22" waitingTime="87.00" waitingCount="1" stopTime="0.00" timeLoss="99.94" rerouteNo="0" devices="tripinfo_VEH_13" vType="sumo_car" speedFactor="1.03" vaporized=""/>
    <tripinfo id="VEH_15" depart="24.00" departLane="-183419042#1_1" departPos="5.10" departSpeed="0.00" departDelay="0.00" arrival="131.00" arrivalLane="331752492#2_1" arrivalPos="66.46" arrivalSpeed="13.36" duration="107.00" routeLength="268.79" waitingTime="75.00" waitingCount="1" stopTime="0.00" timeLoss="87.55" rerouteNo="0" devices="tripinfo_VEH_15" vType="sumo_car" speedFactor="1.12" vaporized=""/>
    <tripinfo id="VEH_26" depart="47.00" departLane="-E4_1" departPos="5.10" departSpeed="0.00" departDelay="0.00" arrival="131.00" arrivalLane="-E2_1" arrivalPos="20.13" arrivalSpeed="10.92" duration="84.00" routeLength="88.22" waitingTime="64.00" waitingCount="1" stopTime="0.00" timeLoss="76.27" rerouteNo="0" devices="tripinfo_VEH_26" vType="sumo_car" speedFactor="0.83" vaporized=""/>
    <tripinfo id="VEH_55" depart="86.00" departLane="758088375#0_1" departPos="5.10" departSpeed="0.00" departDelay="0.00" arrival="131.00" arrivalLane="25973410#1_1" arrivalPos="32.08" arrivalSpeed="8.95" duration="45.00" routeLength="75.29" waitingTime="26.00" waitingCount="1" stopTime="0.00" timeLoss="36.21" rerouteNo="0" devices="tripinfo_VEH_55" vType="sumo_car" speedFactor="1.10" vaporized=""/>
    <tripinfo id="VEH_79" depart="115.00" departLane="183049957#0_1" departPos="6.60" departSpeed="0.00" departDelay="2.00" arrival="140.00" arrivalLane="331752492#2_1" arrivalPos="66.46" arrivalSpeed="10.54" duration="25.00" routeLength="110.71" waitingTime="1.00" waitingCount="1" stopTime="0.00" timeLoss="14.39" rerouteNo="0" devices="tripinfo_VEH_79" vType="sumo_transporter" speedFactor="0.99" vaporized=""/>
    <tripinfo id="VEH_82" depart="121.00" departLane="183049957#0_1" departPos="14.45" departSpeed="0.00" departDelay="3.00" arrival="143.00" arrivalLane="331752492#2_1" arrivalPos="66.46" arrivalSpeed="9.73" duration="22.00" routeLength="102.86" waitingTime="0.00" waitingCount="0" stopTime="0.00" timeLoss="11.33" rerouteNo="0" devices="tripinfo_VEH_82" vType="sumo_truck" speedFactor="1.02" vaporized=""/>
    <tripinfo id="VEH_88" depart="126.00" departLane="183049957#0_1" departPos="5.10" departSpeed="0.00" departDelay="2.00" arrival="146.00" arrivalLane="331752492#2_1" arrivalPos="66.46" arrivalSpeed="12.74" duration="20.00" routeLength="112.21" waitingTime="0.00" waitingCount="0" stopTime="0.00" timeLoss="11.01" rerouteNo="0" devices="tripinfo_VEH_88" vType="sumo_car" speedFactor="1.00" vaporized=""/>
    <tripinfo id="VEH_98" depart="135.00" departLane="183049957#0_1" departPos="5.10" departSpeed="0.00" departDelay="0.00" arrival="151.00" arrivalLane="331752492#2_1" arrivalPos="66.46" arrivalSpeed="13.86" duration="16.00" routeLength="112.21" waitingTime="0.00" waitingCount="0" stopTime="0.00" timeLoss="6.96" rerouteNo="0" devices="tripinfo_VEH_98" vType="sumo_car" speedFactor="1.01" vaporized=""/>
    <tripinfo id="VEH_101" depart="138.00" departLane="183049957#0_1" departPos="5.10" departSpeed="0.00" departDelay="1.00" arrival="155.00" arrivalLane="331752492#2_1" arrivalPos="66.46" arrivalSpeed="13.30" duration="17.00" routeLength="112.21" waitingTime="1.00" waitingCount="1" stopTime="0.00" timeLoss="7.80" rerouteNo="0" devices="tripinfo_VEH_101" vType="sumo_car" speedFactor="1.10" vaporized=""/>
    <tripinfo id="VEH_106" depart="144.00" departLane="758088375#0_1" departPos="2.30" departSpeed="0.00" departDelay="0.00" arrival="158.00" arrivalLane="25973410#1_1" arrivalPos="32.08" arrivalSpeed="7.12" duration="14.00" routeLength="78.09" waitingTime="0.00" waitingCount="0" stopTime="0.00" timeLoss="2.76" rerouteNo="0" devices="tripinfo_VEH_106" vType="sumo_motorcycle" speedFactor="0.89" vaporized=""/>
    <tripinfo id="VEH_100" depart="137.00" departLane="-183419042#1_1" departPos="5.10" departSpeed="0.00" departDelay="0.00" arrival="163.00" arrivalLane="331752492#2_1" arrivalPos="66.46" arrivalSpeed="13.60" duration="26.00" routeLength="268.79" waitingTime="0.00" waitingCount="0" stopTime="0.00" timeLoss="6.24" rerouteNo="0" devices="tripinfo_VEH_100" vType="sumo_car" speedFactor="1.12" vaporized=""/>
    <tripinfo id="VEH_105" depart="144.00" departLane="-1169441386_1" departPos="5.10" departSpeed="0.00" departDelay="2.00" arrival="163.00" arrivalLane="183419043#1_1" arrivalPos="11.49" arrivalSpeed="12.89" duration="19.00" routeLength="129.14" waitingTime="0.00" waitingCount="0" stopTime="0.00" timeLoss="8.32" rerouteNo="0" devices="tripinfo_VEH_105" vType="sumo_car" speedFactor="0.95" vaporized=""/>
    <tripinfo id="VEH_112" depart="150.00" departLane="183049957#0_1" departPos="5.10" departSpeed="0.00" departDelay="0.00" arrival="168.00" arrivalLane="331752492#2_1" arrivalPos="66.46" arrivalSpeed="12.28" duration="18.00" routeLength="112.21" waitingTime="0.00" waitingCount="0" stopTime="0.00" timeLoss="8.24" rerouteNo="0" devices="tripinfo_VEH_112" vType="sumo_car" speedFactor="0.93" vaporized=""/>
    <tripinfo id="VEH_130" depart="171.00" departLane="183049957#0_1" departPos="5.10" departSpeed="0.00" departDelay="0.00" arrival="187.00" arrivalLane="331752492#2_1" arrivalPos="66.46" arrivalSpeed="13.82" duration="16.00" routeLength="112.21" waitingTime="0.00" waitingCount="0" stopTime="0.00" timeLoss="7.13" rerouteNo="0" devices="tripinfo_VEH_130" vType="sumo_car" speedFactor="1.12" vaporized=""/>
    <tripinfo id="VEH_3" depart="5.00" departLane="-E4_1" departPos="5.10" departSpeed="0.00" departDelay="0.00" arrival="188.00" arrivalLane="-758088375#0_1" arrivalPos="24.98" arrivalSpeed="7.35" duration="183.00" routeLength="212.81" waitingTime="145.00" waitingCount="2" stopTime="0.00" timeLoss="160.62" rerouteNo="0" devices="tripinfo_VEH_3" vType="sumo_car" speedFactor="0.94" vaporized=""/>
    <tripinfo id="VEH_56" depart="87.00" departLane="758088375#0_1" departPos="5.10" departSpeed="0.00" departDelay="0.00" arrival="189.00" arrivalLane="E4_1" arrivalPos="50.96" arrivalSpeed="12.86" duration="102.00" routeLength="211.40" waitingTime="66.00" waitingCount="2" stopTime="0.00" timeLoss="82.19" rerouteNo="0" devices="tripinfo_VEH_56" vType="sumo_car" speedFactor="1.00" vaporized=""/>
    <tripinfo id="VEH_84" depart="122.00" departLane="-E4_1" departPos="5.10" departSpeed="0.00" departDelay="0.00" arrival="190.00" arrivalLane="-758088375#0_1" arrivalPos="24.98" arrivalSpeed="8.00" duration="68.00" routeLength="212.81" waitingTime="36.00" waitingCount="1" stopTime="0.00" timeLoss="47.47" rerouteNo="0" devices="tripinfo_VEH_84" vType="sumo_car" speedFactor="1.02" vaporized=""/>
    <tripinfo id="VEH_110" depart="154.00" departLane="-1169441386_1" departPos="5.10" departSpeed="0.00" departDelay="7.00" arrival="190.00" arrivalLane="183419043#1_1" arrivalPos="11.49" arrivalSpeed="12.19" duration="36.00" routeLength="129.14" waitingTime="13.00" waitingCount="1" stopTime="0.00" timeLoss="26.13" rerouteNo="0" devices="tripinfo_VEH_110" vType="sumo_car" speedFactor="1.06" vaporized=""/>
    <tripinfo id="VEH_103" depart="139.00" departLane="-1169441386_1" departPos="5.10" departSpeed="0.00" departDelay="0.00" arrival="191.00" arrivalLane="694116204#2_2" arrivalPos="45.20" arrivalSpeed="12.91" duration="52.00" routeLength="175.49" waitingTime="26.00" waitingCount="1" stopTime="0.00" timeLoss="38.64" rerouteNo="0" devices="tripinfo_VEH_103" vType="sumo_car" speedFactor="0.96" vaporized=""/>
    <tripinfo id="VEH_89" depart="125.00" departLane="-E4_1" departPos="5.10" departSpeed="0.00" departDelay="0.00" arrival="192.00" arrivalLane="-758088375#0_1" arrivalPos="24.98" arrivalSpeed="8.47" duration="67.00" routeLength="212.81" waitingTime="32.00" waitingCount="1" stopTime="0.00" timeLoss="46.23" rerouteNo="0" devices="tripinfo_VEH_89" vType="sumo_car" speedFactor="1.04" vaporized=""/>
    <tripinfo id="VEH_104" depart="141.00" departLane="-1169441386_1" departPos="5.10" departSpeed="0.00" departDelay="0.00" arrival="193.00" arrivalLane="694116204#2_2" arrivalPos="45.20" arrivalSpeed="12.76" duration="52.00" routeLength="175.49" waitingTime="24.00" waitingCount="1" stopTime="0.00" timeLoss="38.52" rerouteNo="0" devices="tripinfo_VEH_104" vType="sumo_car" speedFactor="0.97" vaporized=""/>
    <tripinfo id="VEH_93" depart="137.00" departLane="-E4_1" departPos="5.10" departSpeed="0.00" departDelay="8.00" arrival="195.00" arrivalLane="-758088375#0_1" arrivalPos="24.98" arrivalSpeed="6.97" duration="58.00" routeLength="212.81" waitingTime="22.00" waitingCount="1" stopTime="0.00" timeLoss="34.37" rerouteNo="0" devices="tripinfo_VEH_93" vType="sumo_car" speedFactor="0.89" vaporized=""/>
    <tripinfo id="VEH_107" depart="148.00" departLane="-1169441386_1" departPos="5.10" departSpeed="0.00" departDelay="4.00" arrival="195.00" arrivalLane="694116204#2_2" arrivalPos="45.20" arrivalSpeed="13.66" duration="47.00" routeLength="175.49" waitingTime="21.00" waitingCount="1" stopTime="0.00" timeLoss="34.27" rerouteNo="0" devices="tripinfo_VEH_107" vType="sumo_car" speedFactor="1.07" vaporized=""/>
    <tripinfo id="VEH_136" depart="182.00" departLane="183049957#0_1" departPos="5.10" departSpeed="0.00" departDelay="0.00" arrival="197.00" arrivalLane="331752492#2_1" arrivalPos="66.46" arrivalSpeed="13.35" duration="15.00" routeLength="112.21" waitingTime="0.00" waitingCount="0" stopTime="0.00" timeLoss="6.31" rerouteNo="0" devices="tripinfo_VEH_136" vType="sumo_car" speedFactor="1.23" vaporized=""/>
    <tripinfo id="VEH_138" depart="186.00" departLane="183049957#0_1" departPos="5.10" departSpeed="0.00" departDelay="2.00" arrival="201.00" arrivalLane="331752492#2_1" arrivalPos="66.46" arrivalSpeed="13.67" duration="15.00" routeLength="112.21" waitingTime="0.00" waitingCount="0" stopTime="0.00" timeLoss="6.50" rerouteNo="0" devices="tripinfo_VEH_138" vType="sumo_car" speedFactor="1.12" vaporized=""/>
    <tripinfo id="VEH_140" depart="189.00" departLane="183049957#0_1" departPos="5.10" departSpeed="0.00" departDelay="0.00" arrival="205.00" arrivalLane="331752492#2_1" arrivalPos="66.46" arrivalSpeed="13.72" duration="16.00" routeLength="112.21" waitingTime="0.00" waitingCount="0" stopTime="0.00" timeLoss="6.79" rerouteNo="0" devices="tripinfo_VEH_140" vType="sumo_car" speedFactor="1.00" vaporized=""/>
    <tripinfo id="VEH_142" depart="193.00" departLane="183049957#0_1" departPos="5.10" departSpeed="0.00" departDelay="2.00" arrival="208.00" arrivalLane="331752492#2_1" arrivalPos="66.46" arrivalSpeed="13.85" duration="15.00" routeLength="112.21" waitingTime="0.00" waitingCount="0" stopTime="0.00" timeLoss="6.40" rerouteNo="0" devices="tripinfo_VEH_142" vType="sumo_car" speedFactor="1.11" vaporized=""/>
    <tripinfo id="VEH_143" depart="192.00" departLane="-1169441386_1" departPos="5.10" departSpeed="0.00" departDelay="0.00" arrival="211.00" arrivalLane="694116204#2_2" arrivalPos="45.20" arrivalSpeed="13.35" duration="19.00" routeLength="175.49" waitingTime="0.00" waitingCount="0" stopTime="0.00" timeLoss="5.72" rerouteNo="0" devices="tripinfo_VEH_143" vType="sumo_car" speedFactor="1.16" vaporized=""/>
    <tripinfo id="VEH_144" depart="194.00" departLane="-1169441386_1" departPos="5.10" departSpeed="0.00" departDelay="2.00" arrival="212.00" arrivalLane="183419043#1_1" arrivalPos="11.49" arrivalSpeed="12.99" duration="18.00" routeLength="129.14" waitingTime="0.00" waitingCount="0" stopTime="0.00" timeLoss="7.73" rerouteNo="0" devices="tripinfo_VEH_144" vType="sumo_car" speedFactor="0.94" vaporized=""/>
    <tripinfo id="VEH_149" depart="201.00" departLane="183049957#0_1" departPos="6.60" departSpeed="0.00" departDelay="0.00" arrival="219.00" arrivalLane="331752492#2_1" arrivalPos="66.46" arrivalSpeed="10.63" duration="18.00" routeLength="110.71" waitingTime="0.00" waitingCount="0" stopTime="0.00" timeLoss="7.15" rerouteNo="0" devices="tripinfo_VEH_149" vType="sumo_transporter" speedFactor="1.00" vaporized=""/>
    <tripinfo id="VEH_58" depart="93.00" departLane="-E4_1" departPos="2.30" departSpeed="0.00" departDelay="0.00" arrival="228.00" arrivalLane="-E13_1" arrivalPos="59.59" arrivalSpeed="11.99" duration="135.00" routeLength="800.93" waitingTime="21.00" waitingCount="1" stopTime="0.00" timeLoss="38.80" rerouteNo="0" devices="tripinfo_VEH_58" vType="sumo_motorcycle" speedFactor="0.90" vaporized=""/>
    <tripinfo id="VEH_78" depart="112.00" departLane="-E4_1" departPos="5.10" departSpeed="0.00" departDelay="0.00" arrival="230.00" arrivalLane="-E13_1" arrivalPos="59.59" arrivalSpeed="13.80" duration="118.00" routeLength="798.13" waitingTime="2.00" waitingCount="1" stopTime="0.00" timeLoss="33.32" rerouteNo="0" devices="tripinfo_VEH_78" vType="sumo_car" speedFactor="1.03" vaporized=""/>
    <tripinfo id="VEH_164" depart="222.00" departLane="183049957#0_1" departPos="5.10" departSpeed="0.00" departDelay="0.00" arrival="238.00" arrivalLane="331752492#2_1" arrivalPos="66.46" arrivalSpeed="13.51" duration="16.00" routeLength="112.21" waitingTime="0.00" waitingCount="0" stopTime="0.00" timeLoss="6.99" rerouteNo="0" devices="tripinfo_VEH_164" vType="sumo_car" speedFactor="0.99" vaporized=""/>
    <tripinfo id="VEH_170" depart="226.00" departLane="183049957#0_1" departPos="5.10" departSpeed="0.00" departDelay="1.00" arrival="242.00" arrivalLane="331752492#2_1" arrivalPos="66.46" arrivalSpeed="13.13" duration="16.00" routeLength="112.21" waitingTime="0.00" waitingCount="0" stopTime="0.00" timeLoss="6.89" rerouteNo="0" devices="tripinfo_VEH_170" vType="sumo_car" speedFactor="0.98" vaporized=""/>
    <tripinfo id="VEH_171" depart="229.00" departLane="183049957#0_1" departPos="5.10" departSpeed="0.00" departDelay="3.00" arrival="246.00" arrivalLane="331752492#2_1" arrivalPos="66.46" arrivalSpeed="12.68" duration="17.00" routeLength="112.21" waitingTime="0.00" waitingCount="0" stopTime="0.00" timeLoss="7.95" rerouteNo="0" devices="tripinfo_VEH_171" vType="sumo_car" speedFactor="0.94" vaporized=""/>
    <tripinfo id="VEH_156" depart="210.00" departLane="-183419042#1_1" departPos="2.30" departSpeed="0.00" departDelay="2.00" arrival="251.00" arrivalLane="331752492#2_1" arrivalPos="66.46" arrivalSpeed="14.30" duration="41.00" routeLength="271.59" waitingTime="10.00" waitingCount="1" stopTime="0.00" timeLoss="21.72" rerouteNo="0" devices="tripinfo_VEH_156" vType="sumo_motorcycle" speedFactor="1.06" vaporized=""/>
    <tripinfo id="VEH_158" depart="217.00" departLane="-183419042#1_1" departPos="2.30" departSpeed="0.00" departDelay="6.00" arrival="252.00" arrivalLane="331752492#2_1" arrivalPos="66.46" arrivalSpeed="16.15" duration="35.00" routeLength="271.59" waitingTime="4.00" waitingCount="1" stopTime="0.00" timeLoss="17.87" rerouteNo="0" devices="tripinfo_VEH_158" vType="sumo_motorcycle" speedFactor="1.18" vaporized=""/>
    <tripinfo id="VEH_177" depart="233.00" departLane="183049957#0_1" departPos="5.10" departSpeed="0.00" departDelay="4.00" arrival="258.00" arrivalLane="331752492#2_1" arrivalPos="66.46" arrivalSpeed="12.13" duration="25.00" routeLength="112.21" waitingTime="4.00" waitingCount="1" stopTime="0.00" timeLoss="15.00" rerouteNo="0" devices="tripinfo_VEH_177" vType="sumo_car" speedFactor="0.92" vaporized=""/>
    <tripinfo id="VEH_200" depart="262.00" departLane="183049957#0_1" departPos="5.10" departSpeed="0.00" departDelay="0.00" arrival="277.00" arrivalLane="331752492#2_1" arrivalPos="66.46" arrivalSpeed="13.31" duration="15.00" routeLength="112.21" waitingTime="0.00" waitingCount="0" stopTime="0.00" timeLoss="6.37" rerouteNo="0" devices="tripinfo_VEH_200" vType="sumo_car" speedFactor="1.06" vaporized=""/>
    <tripinfo id="VEH_213" depart="276.00" departLane="183049957#0_1" departPos="2.30" departSpeed="0.00" departDelay="0.00" arrival="292.00" arrivalLane="331752492#2_1" arrivalPos="66.46" arrivalSpeed="14.28" duration="16.00" routeLength="115.01" waitingTime="0.00" waitingCount="0" stopTime="0.00" timeLoss="6.82" rerouteNo="0" devices="tripinfo_VEH_213" vType="sumo_motorcycle" speedFactor="1.04" vaporized=""/>
    <tripinfo id="VEH_229" depart="294.00" departLane="183049957#0_1" departPos="5.10" departSpeed="0.00" departDelay="0.00" arrival="310.00" arrivalLane="331752492#2_1" arrivalPos="66.46" arrivalSpeed="13.67" duration="16.00" routeLength="112.21" waitingTime="0.00" waitingCount="0" stopTime="0.00" timeLoss="6.67" rerouteNo="0" devices="tripinfo_VEH_229" vType="sumo_car" speedFactor="1.11" vaporized=""/>
    <tripinfo id="VEH_211" depart="281.00" departLane="-1169441386_1" departPos="2.30" departSpeed="0.00" departDelay="6.00" arrival="311.00" arrivalLane="183419043#1_1" arrivalPos="11.49" arrivalSpeed="13.63" duration="30.00" routeLength="131.94" waitingTime="7.00" waitingCount="1" stopTime="0.00" timeLoss="19.75" rerouteNo="0" devices="tripinfo_VEH_211" vType="sumo_motorcycle" speedFactor="0.98" vaporized=""/>
    <tripinfo id="VEH_205" depart="269.00" departLane="-1169441386_1" departPos="5.10" departSpeed="0.00" departDelay="0.00" arrival="312.00" arrivalLane="694116204#2_2" arrivalPos="45.20" arrivalSpeed="13.16" duration="43.00" routeLength="175.49" waitingTime="17.00" waitingCount="1" stopTime="0.00" timeLoss="29.44" rerouteNo="0" devices="tripinfo_VEH_205" vType="sumo_car" speedFactor="1.11" vaporized=""/>
    <tripinfo id="VEH_208" depart="275.00" departLane="-1169441386_1" departPos="5.10" departSpeed="0.00" departDelay="2.00" arrival="314.00" arrivalLane="694116204#2_2" arrivalPos="45.20" arrivalSpeed="13.87" duration="39.00" routeLength="175.49" waitingTime="11.00" waitingCount="1" stopTime="0.00" timeLoss="25.77" rerouteNo="0" devices="tripinfo_VEH_208" vType="sumo_car" speedFactor="1.00" vaporized=""/>
    <tripinfo id="VEH_216" depart="287.00" departLane="-1169441386_1" departPos="5.10" departSpeed="0.00" departDelay="9.00" arrival="314.00" arrivalLane="183419043#1_1" arrivalPos="11.49" arrivalSpeed="11.45" duration="27.00" routeLength="129.14" waitingTime="2.00" waitingCount="1" stopTime="0.00" timeLoss="15.08" rerouteNo="0" devices="tripinfo_VEH_216" vType="sumo_car" speedFactor="0.83" vaporized=""/>
    <tripinfo id="VEH_214" depart="284.00" departLane="-1169441386_1" departPos="5.10" departSpeed="0.00" departDelay="8.00" arrival="316.00" arrivalLane="694116204#2_2" arrivalPos="45.20" arrivalSpeed="13.89" duration="32.00" routeLength="175.49" waitingTime="3.00" waitingCount="1" stopTime="0.00" timeLoss="18.46" rerouteNo="0" devices="tripinfo_VEH_214" vType="sumo_car" speedFactor="1.00" vaporized=""/>
    <tripinfo id="VEH_217" depart="291.00" departLane="-1169441386_1" departPos="5.10" departSpeed="0.00" departDelay="12.00" arrival="317.00" arrivalLane="694116204#2_2" arrivalPos="45.20" arrivalSpeed="13.76" duration="26.00" routeLength="175.49" waitingTime="0.00" waitingCount="0" stopTime="0.00" timeLoss="13.32" rerouteNo="0" devices="tripinfo_VEH_217" vType="sumo_car" speedFactor="1.09" vaporized=""/>
    <tripinfo id="VEH_52" depart="81.00" departLane="758088375#0_1" departPos="5.10" departSpeed="0.00" departDelay="0.00" arrival="318.00" arrivalLane="-E13_1" arrivalPos="59.59" arrivalSpeed="11.26" duration="237.00" routeLength="892.87" waitingTime="100.00" waitingCount="3" stopTime="0.00" timeLoss="123.98" rerouteNo="0" devices="tripinfo_VEH_52" vType="sumo_car" speedFactor="0.85" vaporized=""/>
    <tripinfo id="VEH_219" depart="293.00" departLane="-1169441386_1" departPos="5.10" departSpeed="0.00" departDelay="13.00" arrival="319.00" arrivalLane="694116204#2_2" arrivalPos="45.20" arrivalSpeed="13.75" duration="26.00" routeLength="175.49" waitingTime="1.00" waitingCount="1" stopTime="0.00" timeLoss="13.01" rerouteNo="0" devices="tripinfo_VEH_219" vType="sumo_car" speedFactor="1.07" vaporized=""/>
    <tripinfo id="VEH_232" depart="302.00" departLane="-1169441386_1" departPos="5.10" departSpeed="0.00" departDelay="0.00" arrival="321.00" arrivalLane="694116204#2_2" arrivalPos="45.20" arrivalSpeed="13.65" duration="19.00" routeLength="175.49" waitingTime="0.00" waitingCount="0" stopTime="0.00" timeLoss="6.08" rerouteNo="0" devices="tripinfo_VEH_232" vType="sumo_car" speedFactor="1.04" vaporized=""/>