<?xml version="1.0" encoding="UTF-8"?>

<!-- generated on 2025-06-28 14:27:08 by Eclipse SUMO sumo Version 1.19.0
<configuration xmlns:xsi="http://www.w3.org/2001/XMLSchema-instance" xsi:noNamespaceSchemaLocation="http://sumo.dlr.de/xsd/sumoConfiguration.xsd">

    <input>
        <net-file value="../model/Network.net.xml"/>
        <route-files value="../model/CarRoutes.rou.xml"/>
        <additional-files value="../model/BusStops.add.xml"/>
    </input>

    <output>
        <summary-output value="../model/logs/Log_summary.xml"/>
        <summary-output.period value="300"/>
        <tripinfo-output value="../model/logs/TripInfos.xml"/>
    </output>

    <time>
        <begin value="0"/>
        <end value="86400"/>
        <step-length value="1"/>
    </time>

    <processing>
        <ignore-junction-blocker value="0.1"/>
        <time-to-teleport value="-1"/>
        <waiting-time-memory value="6000"/>
    </processing>

    <report>
        <verbose value="true"/>
        <no-step-log value="true"/>
    </report>

    <traci_server>
        <remote-port value="60661"/>
    </traci_server>

    <gui_only>
        <quit-on-end value="true"/>
        <start value="true"/>
    </gui_only>

</configuration>
-->

<tripinfos xmlns:xsi="http://www.w3.org/2001/XMLSchema-instance" xsi:noNamespaceSchemaLocation="http://sumo.dlr.de/xsd/tripinfo_file.xsd">
    <tripinfo id="VEH_5" depart="12.00" departLane="183049957#0_1" departPos="2.30" departSpeed="0.00" departDelay="0.00" arrival="26.00" arrivalLane="331752492#2_1" arrivalPos="66.46" arrivalSpeed="14.95" duration="14.00" routeLength="115.01" waitingTime="0.00" waitingCount="0" stopTime="0.00" timeLoss="5.81" rerouteNo="0" devices="tripinfo_VEH_5" vType="sumo_motorcycle" speedFactor="1.08" vaporized=""/>
    <tripinfo id="VEH_7" depart="15.00" departLane="183049957#0_1" departPos="5.10" departSpeed="0.00" departDelay="0.00" arrival="32.00" arrivalLane="331752492#2_1" arrivalPos="66.46" arrivalSpeed="10.99" duration="17.00" routeLength="112.21" waitingTime="0.00" waitingCount="0" stopTime="0.00" timeLoss="6.34" rerouteNo="0" devices="tripinfo_VEH_7" vType="sumo_car" speedFactor="0.83" vaporized=""/>
    <tripinfo id="VEH_9" depart="19.00" departLane="183049957#0_1" departPos="5.10" departSpeed="0.00" departDelay="2.00" arrival="36.00" arrivalLane="331752492#2_1" arrivalPos="66.46" arrivalSpeed="11.86" duration="17.00" routeLength="112.21" waitingTime="0.00" waitingCount="0" stopTime="0.00" timeLoss="7.18" rerouteNo="0" devices="tripinfo_VEH_9" vType="sumo_car" speedFactor="0.89" vaporized=""/>
    <tripinfo id="VEH_11" depart="23.00" departLane="183049957#0_1" departPos="6.60" departSpeed="0.00" departDelay="2.00" arrival="42.00" arrivalLane="331752492#2_1" arrivalPos="66.46" arrivalSpeed="11.10" duration="19.00" routeLength="110.71" waitingTime="0.00" waitingCount="0" stopTime="0.00" timeLoss="8.58" rerouteNo="0" devices="tripinfo_VEH_11" vType="sumo_transporter" speedFactor="0.93" vaporized=""/>
    <tripinfo id="VEH_17" depart="28.00" departLane="183049957#0_1" departPos="5.10" departSpeed="0.00" departDelay="1.00" arrival="44.00" arrivalLane="331752492#2_1" arrivalPos="66.46" arrivalSpeed="12.68" duration="16.00" routeLength="112.21" waitingTime="0.00" waitingCount="0" stopTime="0.00" timeLoss="6.68" rerouteNo="0" devices="tripinfo_VEH_17" vType="sumo_car" speedFactor="0.93" vaporized=""/>
    <tripinfo id="VEH_15" depart="24.00" departLane="-183419042#1_1" departPos="5.10" departSpeed="0.00" departDelay="0.00" arrival="49.00" arrivalLane="331752492#2_1" arrivalPos="66.46" arrivalSpeed="13.52" duration="25.00" routeLength="268.79" waitingTime="0.00" waitingCount="0" stopTime="0.00" timeLoss="5.62" rerouteNo="0" devices="tripinfo_VEH_15" vType="sumo_car" speedFactor="1.12" vaporized=""/>
    <tripinfo id="VEH_16" depart="27.00" departLane="758088375#0_1" departPos="2.30" departSpeed="0.00" departDelay="0.00" arrival="49.00" arrivalLane="25973410#1_1" arrivalPos="32.08" arrivalSpeed="8.21" duration="22.00" routeLength="78.09" waitingTime="5.00" waitingCount="1" stopTime="0.00" timeLoss="12.05" rerouteNo="0" devices="tripinfo_VEH_16" vType="sumo_motorcycle" speedFactor="0.99" vaporized=""/>
    <tripinfo id="VEH_10" depart="19.00" departLane="-25973410#1_1" departPos="5.10" departSpeed="0.00" departDelay="1.00" arrival="52.00" arrivalLane="-758088375#0_1" arrivalPos="24.98" arrivalSpeed="7.41" duration="33.00" routeLength="75.26" waitingTime="14.00" waitingCount="1" stopTime="0.00" timeLoss="22.49" rerouteNo="0" devices="tripinfo_VEH_10" vType="sumo_car" speedFactor="0.94" vaporized=""/>
    <tripinfo id="VEH_13" depart="23.00" departLane="-E4_1" departPos="5.10" departSpeed="0.00" departDelay="0.00" arrival="55.00" arrivalLane="-E2_1" arrivalPos="20.13" arrivalSpeed="10.01" duration="32.00" routeLength="88.22" waitingTime="13.00" waitingCount="1" stopTime="0.00" timeLoss="25.62" rerouteNo="0" devices="tripinfo_VEH_13" vType="sumo_car" speedFactor="1.03" vaporized=""/>
    <tripinfo id="VEH_20" depart="33.00" departLane="183049957#0_1" departPos="5.10" departSpeed="0.00" departDelay="0.00" arrival="56.00" arrivalLane="331752492#2_1" arrivalPos="66.46" arrivalSpeed="12.72" duration="23.00" routeLength="112.21" waitingTime="3.00" waitingCount="1" stopTime="0.00" timeLoss="13.27" rerouteNo="0" devices="tripinfo_VEH_20" vType="sumo_car" speedFactor="0.94" vaporized=""/>
    <tripinfo id="VEH_22" depart="42.00" departLane="183049957#0_1" departPos="5.10" departSpeed="0.00" departDelay="0.00" arrival="58.00" arrivalLane="331752492#2_1" arrivalPos="66.46" arrivalSpeed="13.54" duration="16.00" routeLength="112.21" waitingTime="0.00" waitingCount="0" stopTime="0.00" timeLoss="7.03" rerouteNo="0" devices="tripinfo_VEH_22" vType="sumo_car" speedFactor="1.02" vaporized=""/>
    <tripinfo id="VEH_6" depart="15.00" departLane="-25973410#1_1" departPos="5.10" departSpeed="0.00" departDelay="0.00" arrival="62.00" arrivalLane="694116204#2_1" arrivalPos="45.20" arrivalSpeed="13.39" duration="47.00" routeLength="221.68" waitingTime="15.00" waitingCount="1" stopTime="0.00" timeLoss="25.64" rerouteNo="0" devices="tripinfo_VEH_6" vType="sumo_car" speedFactor="1.03" vaporized=""/>
    <tripinfo id="VEH_3" depart="5.00" departLane="-E4_1" departPos="5.10" departSpeed="0.00" departDelay="0.00" arrival="84.00" arrivalLane="-758088375#0_1" arrivalPos="24.98" arrivalSpeed="7.25" duration="79.00" routeLength="212.81" waitingTime="42.00" waitingCount="2" stopTime="0.00" timeLoss="56.75" rerouteNo="0" devices="tripinfo_VEH_3" vType="sumo_car" speedFactor="0.94" vaporized=""/>
    <tripinfo id="VEH_40" depart="69.00" departLane="183049957#0_1" departPos="5.10" departSpeed="0.00" departDelay="0.00" arrival="85.00" arrivalLane="331752492#2_1" arrivalPos="66.46" arrivalSpeed="13.37" duration="16.00" routeLength="112.21" waitingTime="0.00" waitingCount="0" stopTime="0.00" timeLoss="6.85" rerouteNo="0" devices="tripinfo_VEH_40" vType="sumo_car" speedFactor="1.10" vaporized=""/>
    <tripinfo id="VEH_46" depart="74.00" departLane="-1169441386_1" departPos="2.30" departSpeed="0.00" departDelay="0.00" arrival="89.00" arrivalLane="183419043#1_1" arrivalPos="11.49" arrivalSpeed="13.51" duration="15.00" routeLength="131.94" waitingTime="0.00" waitingCount="0" stopTime="0.00" timeLoss="5.87" rerouteNo="0" devices="tripinfo_VEH_46" vType="sumo_motorcycle" speedFactor="1.04" vaporized=""/>
    <tripinfo id="VEH_14" depart="23.00" departLane="921020465#1_1" departPos="5.10" departSpeed="0.00" departDelay="0.00" arrival="94.00" arrivalLane="E4_1" arrivalPos="50.96" arrivalSpeed="12.47" duration="71.00" routeLength="425.49" waitingTime="12.00" waitingCount="2" stopTime="0.00" timeLoss="34.02" rerouteNo="0" devices="tripinfo_VEH_14" vType="sumo_car" speedFactor="1.05" vaporized=""/>
    <tripinfo id="VEH_55" depart="86.00" departLane="758088375#0_1" departPos="5.10" departSpeed="0.00" departDelay="0.00" arrival="99.00" arrivalLane="25973410#1_1" arrivalPos="32.08" arrivalSpeed="8.81" duration="13.00" routeLength="75.29" waitingTime="0.00" waitingCount="0" stopTime="0.00" timeLoss="3.81" rerouteNo="0" devices="tripinfo_VEH_55" vType="sumo_car" speedFactor="1.10" vaporized=""/>
    <tripinfo id="VEH_26" depart="47.00" departLane="-E4_1" departPos="6.60" departSpeed="0.00" departDelay="0.00" arrival="100.00" arrivalLane="-E2_1" arrivalPos="20.13" arrivalSpeed="8.27" duration="53.00" routeLength="86.72" waitingTime="30.00" waitingCount="1" stopTime="0.00" timeLoss="44.65" rerouteNo="0" devices="tripinfo_VEH_26" vType="sumo_transporter" speedFactor="0.91" vaporized=""/>
    <tripinfo id="VEH_53" depart="85.00" departLane="183049957#0_1" departPos="5.10" departSpeed="0.00" departDelay="0.00" arrival="100.00" arrivalLane="331752492#2_1" arrivalPos="66.46" arrivalSpeed="13.46" duration="15.00" routeLength="112.21" waitingTime="0.00" waitingCount="0" stopTime="0.00" timeLoss="6.51" rerouteNo="0" devices="tripinfo_VEH_53" vType="sumo_car" speedFactor="1.17" vaporized=""/>
    <tripinfo id="VEH_23" depart="43.00" departLane="-25973410#1_1" departPos="5.10" departSpeed="0.00" departDelay="0.00" arrival="107.00" arrivalLane="694116204#2_1" arrivalPos="45.20" arrivalSpeed="13.16" duration="64.00" routeLength="221.68" waitingTime="33.00" waitingCount="1" stopTime="0.00" timeLoss="42.50" rerouteNo="0" devices="tripinfo_VEH_23" vType="sumo_car" speedFactor="1.01" vaporized=""/>
    <tripinfo id="VEH_35" depart="60.00" departLane="-25973410#1_1" departPos="2.30" departSpeed="0.00" departDelay="0.00" arrival="109.00" arrivalLane="694116204#2_1" arrivalPos="45.20" arrivalSpeed="15.57" duration="49.00" routeLength="224.48" waitingTime="18.00" waitingCount="1" stopTime="0.00" timeLoss="29.77" rerouteNo="0" devices="tripinfo_VEH_35" vType="sumo_motorcycle" speedFactor="1.17" vaporized=""/>
    <tripinfo id="VEH_39" depart="79.00" departLane="921020465#1_1" departPos="5.10" departSpeed="0.00" departDelay="13.00" arrival="112.00" arrivalLane="183419043#1_1" arrivalPos="11.49" arrivalSpeed="9.91" duration="33.00" routeLength="172.24" waitingTime="3.00" waitingCount="2" stopTime="0.00" timeLoss="19.73" rerouteNo="0" devices="tripinfo_VEH_39" vType="sumo_car" speedFactor="1.18" vaporized=""/>
    <tripinfo id="VEH_54" depart="85.00" departLane="-1169441386_1" departPos="5.10" departSpeed="0.00" departDelay="0.00" arrival="117.00" arrivalLane="694116204#2_2" arrivalPos="45.20" arrivalSpeed="13.68" duration="32.00" routeLength="175.49" waitingTime="6.00" waitingCount="1" stopTime="0.00" timeLoss="18.82" rerouteNo="0" devices="tripinfo_VEH_54" vType="sumo_car" speedFactor="1.02" vaporized=""/>
    <tripinfo id="VEH_42" depart="85.00" departLane="921020465#1_1" departPos="5.10" departSpeed="0.00" departDelay="16.00" arrival="119.00" arrivalLane="183419043#1_1" arrivalPos="11.49" arrivalSpeed="9.34" duration="34.00" routeLength="172.24" waitingTime="3.00" waitingCount="1" stopTime="0.00" timeLoss="20.76" rerouteNo="0" devices="tripinfo_VEH_42" vType="sumo_car" speedFactor="1.03" vaporized=""/>
    <tripinfo id="VEH_44" depart="89.00" departLane="921020465#1_1" departPos="6.60" departSpeed="0.00" departDelay="18.00" arrival="123.00" arrivalLane="183419043#1_1" arrivalPos="11.49" arrivalSpeed="8.69" duration="34.00" routeLength="170.74" waitingTime="3.00" waitingCount="2" stopTime="0.00" timeLoss="18.20" rerouteNo="0" devices="tripinfo_VEH_44" vType="sumo_transporter" speedFactor="1.05" vaporized=""/>
    <tripinfo id="VEH_24" depart="44.00" departLane="23320502_1" departPos="5.10" departSpeed="0.00" departDelay="0.00" arrival="124.00" arrivalLane="25973410#1_1" arrivalPos="32.08" arrivalSpeed="7.97" duration="80.00" routeLength="524.68" waitingTime="3.00" waitingCount="1" stopTime="0.00" timeLoss="21.63" rerouteNo="0" devices="tripinfo_VEH_24" vType="sumo_car" speedFactor="0.97" vaporized=""/>
    <tripinfo id="VEH_45" depart="92.00" departLane="921020465#1_1" departPos="5.10" departSpeed="0.00" departDelay="19.00" arrival="125.00" arrivalLane="183419043#1_1" arrivalPos="11.49" arrivalSpeed="9.31" duration="33.00" routeLength="172.24" waitingTime="2.00" waitingCount="1" stopTime="0.00" timeLoss="19.77" rerouteNo="0" devices="tripinfo_VEH_45" vType="sumo_car" speedFactor="1.04" vaporized=""/>
    <tripinfo id="VEH_68" depart="107.00" departLane="183049957#0_1" departPos="14.45" departSpeed="0.00" departDelay="0.00" arrival="127.00" arrivalLane="331752492#2_1" arrivalPos="66.46" arrivalSpeed="9.74" duration="20.00" routeLength="102.86" waitingTime="0.00" waitingCount="0" stopTime="0.00" timeLoss="8.57" rerouteNo="0" devices="tripinfo_VEH_68" vType="sumo_truck" speedFactor="0.95" vaporized=""/>
    <tripinfo id="VEH_75" depart="113.00" departLane="183049957#0_1" departPos="6.60" departSpeed="0.00" departDelay="2.00" arrival="131.00" arrivalLane="331752492#2_1" arrivalPos="66.46" arrivalSpeed="10.65" duration="18.00" routeLength="110.71" waitingTime="0.00" waitingCount="0" stopTime="0.00" timeLoss="6.82" rerouteNo="0" devices="tripinfo_VEH_75" vType="sumo_transporter" speedFactor="1.03" vaporized=""/>
    <tripinfo id="VEH_79" depart="118.00" departLane="183049957#0_1" departPos="5.10" departSpeed="0.00" departDelay="5.00" arrival="134.00" arrivalLane="331752492#2_1" arrivalPos="66.46" arrivalSpeed="13.31" duration="16.00" routeLength="112.21" waitingTime="0.00" waitingCount="0" stopTime="0.00" timeLoss="6.90" rerouteNo="0" devices="tripinfo_VEH_79" vType="sumo_car" speedFactor="0.98" vaporized=""/>
    <tripinfo id="VEH_82" depart="122.00" departLane="183049957#0_1" departPos="5.10" departSpeed="0.00" departDelay="4.00" arrival="138.00" arrivalLane="331752492#2_1" arrivalPos="66.46" arrivalSpeed="13.74" duration="16.00" routeLength="112.21" waitingTime="0.00" waitingCount="0" stopTime="0.00" timeLoss="6.92" rerouteNo="0" devices="tripinfo_VEH_82" vType="sumo_car" speedFactor="1.03" vaporized=""/>
    <tripinfo id="VEH_18" depart="28.00" departLane="921020465#1_1" departPos="5.10" departSpeed="0.00" departDelay="0.00" arrival="140.00" arrivalLane="E4_1" arrivalPos="50.96" arrivalSpeed="11.59" duration="112.00" routeLength="425.49" waitingTime="42.00" waitingCount="2" stopTime="0.00" timeLoss="68.24" rerouteNo="0" devices="tripinfo_VEH_18" vType="sumo_car" speedFactor="0.88" vaporized=""/>
    <tripinfo id="VEH_49" depart="102.00" departLane="921020465#1_1" departPos="5.10" departSpeed="0.00" departDelay="24.00" arrival="142.00" arrivalLane="183419043#1_1" arrivalPos="11.49" arrivalSpeed="11.03" duration="40.00" routeLength="172.24" waitingTime="10.00" waitingCount="2" stopTime="0.00" timeLoss="24.37" rerouteNo="0" devices="tripinfo_VEH_49" vType="sumo_car" speedFactor="0.90" vaporized=""/>
    <tripinfo id="VEH_88" depart="126.00" departLane="183049957#0_1" departPos="5.10" departSpeed="0.00" departDelay="2.00" arrival="142.00" arrivalLane="331752492#2_1" arrivalPos="66.46" arrivalSpeed="13.52" duration="16.00" routeLength="112.21" waitingTime="0.00" waitingCount="0" stopTime="0.00" timeLoss="6.77" rerouteNo="0" devices="tripinfo_VEH_88" vType="sumo_car" speedFactor="1.00" vaporized=""/>
    <tripinfo id="VEH_12" depart="22.00" departLane="1162834479#1_1" departPos="0.20" departSpeed="0.00" departDelay="0.00" arrival="148.00" arrivalLane="694116204#2_2" arrivalPos="45.20" arrivalSpeed="13.85" duration="126.00" routeLength="992.43" waitingTime="1.00" waitingCount="1" stopTime="0.00" timeLoss="26.32" rerouteNo="0" devices="tripinfo_VEH_12" vType="sumo_car" speedFactor="1.09" vaporized=""/>
    <tripinfo id="VEH_2" depart="1.00" departLane="-E4_1" departPos="5.10" departSpeed="0.00" departDelay="0.00" arrival="149.00" arrivalLane="-1162834479#1_1" arrivalPos="0.20" arrivalSpeed="8.93" duration="148.00" routeLength="746.01" waitingTime="45.00" waitingCount="2" stopTime="0.00" timeLoss="68.99" rerouteNo="0" devices="tripinfo_VEH_2" vType="sumo_car" speedFactor="1.06" vaporized=""/>
    <tripinfo id="VEH_98" depart="135.00" departLane="183049957#0_1" departPos="2.30" departSpeed="0.00" departDelay="0.00" arrival="150.00" arrivalLane="331752492#2_1" arrivalPos="66.46" arrivalSpeed="13.62" duration="15.00" routeLength="115.01" waitingTime="0.00" waitingCount="0" stopTime="0.00" timeLoss="5.47" rerouteNo="0" devices="tripinfo_VEH_98" vType="sumo_motorcycle" speedFactor="1.01" vaporized=""/>
    <tripinfo id="VEH_101" depart="138.00" departLane="183049957#0_1" departPos="2.30" departSpeed="0.00" departDelay="1.00" arrival="153.00" arrivalLane="331752492#2_1" arrivalPos="66.46" arrivalSpeed="15.12" duration="15.00" routeLength="115.01" waitingTime="0.00" waitingCount="0" stopTime="0.00" timeLoss="6.05" rerouteNo="0" devices="tripinfo_VEH_101" vType="sumo_motorcycle" speedFactor="1.10" vaporized=""/>
    <tripinfo id="VEH_103" depart="139.00" departLane="-1169441386_1" departPos="5.10" departSpeed="0.00" departDelay="0.00" arrival="161.00" arrivalLane="694116204#2_2" arrivalPos="45.20" arrivalSpeed="12.60" duration="22.00" routeLength="175.49" waitingTime="0.00" waitingCount="0" stopTime="0.00" timeLoss="7.97" rerouteNo="0" devices="tripinfo_VEH_103" vType="sumo_car" speedFactor="0.96" vaporized=""/>
    <tripinfo id="VEH_105" depart="144.00" departLane="-1169441386_1" departPos="2.30" departSpeed="0.00" departDelay="2.00" arrival="161.00" arrivalLane="183419043#1_1" arrivalPos="11.49" arrivalSpeed="12.55" duration="17.00" routeLength="131.94" waitingTime="0.00" waitingCount="0" stopTime="0.00" timeLoss="6.76" rerouteNo="0" devices="tripinfo_VEH_105" vType="sumo_motorcycle" speedFactor="0.95" vaporized=""/>
    <tripinfo id="VEH_104" depart="142.00" departLane="-1169441386_1" departPos="5.10" departSpeed="0.00" departDelay="1.00" arrival="162.00" arrivalLane="694116204#2_2" arrivalPos="45.20" arrivalSpeed="13.22" duration="20.00" routeLength="175.49" waitingTime="0.00" waitingCount="0" stopTime="0.00" timeLoss="6.82" rerouteNo="0" devices="tripinfo_VEH_104" vType="sumo_car" speedFactor="0.97" vaporized=""/>
    <tripinfo id="VEH_112" depart="150.00" departLane="183049957#0_1" departPos="5.10" departSpeed="0.00" departDelay="0.00" arrival="166.00" arrivalLane="331752492#2_1" arrivalPos="66.46" arrivalSpeed="12.68" duration="16.00" routeLength="112.21" waitingTime="0.00" waitingCount="0" stopTime="0.00" timeLoss="6.59" rerouteNo="0" devices="tripinfo_VEH_112" vType="sumo_car" speedFactor="0.93" vaporized=""/>
    <tripinfo id="VEH_107" depart="148.00" departLane="-1169441386_1" departPos="6.60" departSpeed="0.00" departDelay="4.00" arrival="171.00" arrivalLane="694116204#2_2" arrivalPos="45.20" arrivalSpeed="10.76" duration="23.00" routeLength="173.99" waitingTime="0.00" waitingCount="0" stopTime="0.00" timeLoss="6.73" rerouteNo="0" devices="tripinfo_VEH_107" vType="sumo_transporter" speedFactor="1.04" vaporized=""/>
    <tripinfo id="VEH_84" depart="122.00" departLane="-E4_1" departPos="5.10" departSpeed="0.00" departDelay="0.00" arrival="173.00" arrivalLane="-758088375#0_1" arrivalPos="24.98" arrivalSpeed="8.18" duration="51.00" routeLength="212.81" waitingTime="13.00" waitingCount="2" stopTime="0.00" timeLoss="30.39" rerouteNo="0" devices="tripinfo_VEH_84" vType="sumo_car" speedFactor="1.02" vaporized=""/>
    <tripinfo id="VEH_110" depart="155.00" departLane="-1169441386_1" departPos="5.10" departSpeed="0.00" departDelay="8.00" arrival="174.00" arrivalLane="183419043#1_1" arrivalPos="11.49" arrivalSpeed="12.44" duration="19.00" routeLength="129.14" waitingTime="0.00" waitingCount="0" stopTime="0.00" timeLoss="9.00" rerouteNo="0" devices="tripinfo_VEH_110" vType="sumo_car" speedFactor="1.06" vaporized=""/>
    <tripinfo id="VEH_89" depart="126.00" departLane="-E4_1" departPos="5.10" departSpeed="0.00" departDelay="1.00" arrival="175.00" arrivalLane="-758088375#0_1" arrivalPos="24.98" arrivalSpeed="8.60" duration="49.00" routeLength="212.81" waitingTime="11.00" waitingCount="1" stopTime="0.00" timeLoss="29.02" rerouteNo="0" devices="tripinfo_VEH_89" vType="sumo_car" speedFactor="1.04" vaporized=""/>
    <tripinfo id="VEH_100" depart="137.00" departLane="-183419042#1_1" departPos="5.10" departSpeed="0.00" departDelay="0.00" arrival="179.00" arrivalLane="331752492#2_1" arrivalPos="66.46" arrivalSpeed="13.31" duration="42.00" routeLength="268.79" waitingTime="7.00" waitingCount="1" stopTime="0.00" timeLoss="22.28" rerouteNo="0" devices="tripinfo_VEH_100" vType="sumo_car" speedFactor="1.12" vaporized=""/>
    <tripinfo id="VEH_4" depart="9.00" departLane="-183419042#1_1" departPos="6.60" departSpeed="0.00" departDelay="0.00" arrival="181.00" arrivalLane="-E13_1" arrivalPos="59.59" arrivalSpeed="10.66" duration="172.00" routeLength="1150.22" waitingTime="20.00" waitingCount="2" stopTime="0.00" timeLoss="47.00" rerouteNo="0" devices="tripinfo_VEH_4" vType="sumo_transporter" speedFactor="1.01" vaporized=""/>
    <tripinfo id="VEH_28" depart="50.00" departLane="1162834479#1_1" departPos="0.20" departSpeed="0.00" departDelay="0.00" arrival="182.00" arrivalLane="183419043#1_1" arrivalPos="11.49" arrivalSpeed="9.57" duration="132.00" routeLength="931.93" waitingTime="1.00" waitingCount="1" stopTime="0.00" timeLoss="19.66" rerouteNo="0" devices="tripinfo_VEH_28" vType="sumo_car" speedFactor="0.92" vaporized=""/>
    <tripinfo id="VEH_8" depart="15.00" departLane="-183419042#1_1" departPos="5.10" departSpeed="0.00" departDelay="0.00" arrival="183.00" arrivalLane="-E13_1" arrivalPos="59.59" arrivalSpeed="13.31" duration="168.00" routeLength="1151.72" waitingTime="18.00" waitingCount="2" stopTime="0.00" timeLoss="53.56" rerouteNo="0" devices="tripinfo_VEH_8" vType="sumo_car" speedFactor="1.05" vaporized=""/>
    <tripinfo id="VEH_56" depart="87.00" departLane="758088375#0_1" departPos="2.30" departSpeed="0.00" departDelay="0.00" arrival="183.00" arrivalLane="E4_1" arrivalPos="50.96" arrivalSpeed="13.34" duration="96.00" routeLength="214.20" waitingTime="61.00" waitingCount="2" stopTime="0.00" timeLoss="75.77" rerouteNo="0" devices="tripinfo_VEH_56" vType="sumo_motorcycle" speedFactor="1.00" vaporized=""/>
    <tripinfo id="VEH_21" depart="35.00" departLane="921020465#1_1" departPos="5.10" departSpeed="0.00" departDelay="0.00" arrival="185.00" arrivalLane="-E13_1" arrivalPos="59.59" arrivalSpeed="13.28" duration="150.00" routeLength="1106.96" waitingTime="0.00" waitingCount="0" stopTime="0.00" timeLoss="47.01" rerouteNo="0" devices="tripinfo_VEH_21" vType="sumo_car" speedFactor="1.16" vaporized=""/>
    <tripinfo id="VEH_32" depart="57.00" departLane="921020465#1_1" departPos="2.30" departSpeed="0.00" departDelay="1.00" arrival="185.00" arrivalLane="E4_1" arrivalPos="50.96" arrivalSpeed="14.39" duration="128.00" routeLength="428.29" waitingTime="62.00" waitingCount="3" stopTime="0.00" timeLoss="95.06" rerouteNo="0" devices="tripinfo_VEH_32" vType="sumo_motorcycle" speedFactor="1.18" vaporized=""/>
    <tripinfo id="VEH_106" depart="144.00" departLane="758088375#0_1" departPos="5.10" departSpeed="0.00" departDelay="0.00" arrival="185.00" arrivalLane="25973410#1_1" arrivalPos="32.08" arrivalSpeed="7.25" duration="41.00" routeLength="75.29" waitingTime="23.00" waitingCount="1" stopTime="0.00" timeLoss="30.81" rerouteNo="0" devices="tripinfo_VEH_106" vType="sumo_car" speedFactor="0.89" vaporized=""/>
    <tripinfo id="VEH_130" depart="171.00" departLane="183049957#0_1" departPos="5.10" departSpeed="0.00" departDelay="0.00" arrival="187.00" arrivalLane="331752492#2_1" arrivalPos="66.46" arrivalSpeed="13.16" duration="16.00" routeLength="112.21" waitingTime="0.00" waitingCount="0" stopTime="0.00" timeLoss="6.89" rerouteNo="0" devices="tripinfo_VEH_130" vType="sumo_car" speedFactor="1.12" vaporized=""/>
    <tripinfo id="VEH_19" depart="31.00" departLane="921020465#1_1" departPos="5.10" departSpeed="0.00" departDelay="2.00" arrival="193.00" arrivalLane="-1162834479#1_1" arrivalPos="0.20" arrivalSpeed="10.91" duration="162.00" routeLength="1054.84" waitingTime="9.00" waitingCount="2" stopTime="0.00" timeLoss="43.46" rerouteNo="0" devices="tripinfo_VEH_19" vType="sumo_car" speedFactor="0.94" vaporized=""/>
    <tripinfo id="VEH_91" depart="130.00" departLane="-E4_1" departPos="5.10" departSpeed="0.00" departDelay="3.00" arrival="193.00" arrivalLane="694116204#2_1" arrivalPos="45.20" arrivalSpeed="13.50" duration="63.00" routeLength="370.12" waitingTime="9.00" waitingCount="1" stopTime="0.00" timeLoss="28.35" rerouteNo="0" devices="tripinfo_VEH_91" vType="sumo_car" speedFactor="1.02" vaporized=""/>
    <tripinfo id="VEH_31" depart="53.00" departLane="1162834479#1_1" departPos="0.20" departSpeed="0.00" departDelay="0.00" arrival="197.00" arrivalLane="694116204#2_2" arrivalPos="45.20" arrivalSpeed="11.03" duration="144.00" routeLength="992.43" waitingTime="1.00" waitingCount="1" stopTime="0.00" timeLoss="29.16" rerouteNo="0" devices="tripinfo_VEH_31" vType="sumo_transporter" speedFactor="0.97" vaporized=""/>
    <tripinfo id="VEH_136" depart="182.00" departLane="183049957#0_1" departPos="5.10" departSpeed="0.00" departDelay="0.00" arrival="197.00" arrivalLane="331752492#2_1" arrivalPos="66.46" arrivalSpeed="13.68" duration="15.00" routeLength="112.21" waitingTime="0.00" waitingCount="0" stopTime="0.00" timeLoss="6.31" rerouteNo="0" devices="tripinfo_VEH_136" vType="sumo_car" speedFactor="1.23" vaporized=""/>
    <tripinfo id="VEH_138" depart="186.00" departLane="183049957#0_1" departPos="5.10" departSpeed="0.00" departDelay="2.00" arrival="203.00" arrivalLane="331752492#2_1" arrivalPos="66.46" arrivalSpeed="13.54" duration="17.00" routeLength="112.21" waitingTime="0.00" waitingCount="0" stopTime="0.00" timeLoss="7.89" rerouteNo="0" devices="tripinfo_VEH_138" vType="sumo_car" speedFactor="1.12" vaporized=""/>
    <tripinfo id="VEH_140" depart="190.00" departLane="183049957#0_1" departPos="5.10" departSpeed="0.00" departDelay="1.00" arrival="206.00" arrivalLane="331752492#2_1" arrivalPos="66.46" arrivalSpeed="13.67" duration="16.00" routeLength="112.21" waitingTime="0.00" waitingCount="0" stopTime="0.00" timeLoss="6.69" rerouteNo="0" devices="tripinfo_VEH_140" vType="sumo_car" speedFactor="1.00" vaporized=""/>
    <tripinfo id="VEH_62" depart="99.00" departLane="E13_1" departPos="5.10" departSpeed="0.00" departDelay="0.00" arrival="208.00" arrivalLane="E4_1" arrivalPos="50.96" arrivalSpeed="12.25" duration="109.00" routeLength="789.50" waitingTime="6.00" waitingCount="1" stopTime="0.00" timeLoss="28.45" rerouteNo="0" devices="tripinfo_VEH_62" vType="sumo_car" speedFactor="1.08" vaporized=""/>
    <tripinfo id="VEH_142" depart="194.00" departLane="183049957#0_1" departPos="5.10" departSpeed="0.00" departDelay="3.00" arrival="210.00" arrivalLane="331752492#2_1" arrivalPos="66.46" arrivalSpeed="13.77" duration="16.00" routeLength="112.21" waitingTime="0.00" waitingCount="0" stopTime="0.00" timeLoss="6.79" rerouteNo="0" devices="tripinfo_VEH_142" vType="sumo_car" speedFactor="1.11" vaporized=""/>
    <tripinfo id="VEH_143" depart="192.00" departLane="-1169441386_1" departPos="5.10" departSpeed="0.00" departDelay="0.00" arrival="211.00" arrivalLane="694116204#2_2" arrivalPos="45.20" arrivalSpeed="13.33" duration="19.00" routeLength="175.49" waitingTime="0.00" waitingCount="0" stopTime="0.00" timeLoss="5.97" rerouteNo="0" devices="tripinfo_VEH_143" vType="sumo_car" speedFactor="1.16" vaporized=""/>
    <tripinfo id="VEH_144" depart="194.00" departLane="-1169441386_1" departPos="5.10" departSpeed="0.00" departDelay="2.00" arrival="213.00" arrivalLane="183419043#1_1" arrivalPos="11.49" arrivalSpeed="12.32" duration="19.00" routeLength="129.14" waitingTime="0.00" waitingCount="0" stopTime="0.00" timeLoss="8.41" rerouteNo="0" devices="tripinfo_VEH_144" vType="sumo_car" speedFactor="0.94" vaporized=""/>
    <tripinfo id="VEH_149" depart="201.00" departLane="183049957#0_1" departPos="5.10" departSpeed="0.00" departDelay="0.00" arrival="217.00" arrivalLane="331752492#2_1" arrivalPos="66.46" arrivalSpeed="13.38" duration="16.00" routeLength="112.21" waitingTime="0.00" waitingCount="0" stopTime="0.00" timeLoss="6.97" rerouteNo="0" devices="tripinfo_VEH_149" vType="sumo_car" speedFactor="1.00" vaporized=""/>
    <tripinfo id="VEH_93" depart="134.00" departLane="-E4_1" departPos="5.10" departSpeed="0.00" departDelay="5.00" arrival="219.00" arrivalLane="-758088375#0_1" arrivalPos="24.98" arrivalSpeed="6.78" duration="85.00" routeLength="212.81" waitingTime="46.00" waitingCount="2" stopTime="0.00" timeLoss="61.40" rerouteNo="0" devices="tripinfo_VEH_93" vType="sumo_car" speedFactor="0.89" vaporized=""/>
    <tripinfo id="VEH_52" depart="81.00" departLane="758088375#0_1" departPos="5.10" departSpeed="0.00" departDelay="0.00" arrival="224.00" arrivalLane="-E13_1" arrivalPos="59.59" arrivalSpeed="11.73" duration="143.00" routeLength="892.87" waitingTime="14.00" waitingCount="1" stopTime="0.00" timeLoss="30.58" rerouteNo="0" devices="tripinfo_VEH_52" vType="sumo_car" speedFactor="0.85" vaporized=""/>
    <tripinfo id="VEH_43" depart="86.00" departLane="921020465#1_1" departPos="5.10" departSpeed="0.00" departDelay="15.00" arrival="229.00" arrivalLane="E4_1" arrivalPos="50.96" arrivalSpeed="13.07" duration="143.00" routeLength="425.49" waitingTime="58.00" waitingCount="4" stopTime="0.00" timeLoss="102.86" rerouteNo="0" devices="tripinfo_VEH_43" vType="sumo_car" speedFactor="0.96" vaporized=""/>
    <tripinfo id="VEH_60" depart="96.00" departLane="1162834479#1_1" departPos="0.20" departSpeed="0.00" departDelay="0.00" arrival="231.00" arrivalLane="183419043#1_1" arrivalPos="11.49" arrivalSpeed="9.28" duration="135.00" routeLength="931.93" waitingTime="3.00" waitingCount="1" stopTime="0.00" timeLoss="29.58" rerouteNo="0" devices="tripinfo_VEH_60" vType="sumo_transporter" speedFactor="1.01" vaporized=""/>