<?xml version="1.0" encoding="UTF-8"?>

<!-- generated on 2025-06-28 15:04:16 by Eclipse SUMO sumo Version 1.19.0
<configuration xmlns:xsi="http://www.w3.org/2001/XMLSchema-instance" xsi:noNamespaceSchemaLocation="http://sumo.dlr.de/xsd/sumoConfiguration.xsd">

    <input>
        <net-file value="../model/Network.net.xml"/>
        <route-files value="../model/CarRoutes.rou.xml"/>
        <additional-files value="../model/BusStops.add.xml"/>
    </input>

    <output>
        <summary-output value="../model/logs/Log_summary.xml"/>
        <summary-output.period value="300"/>
        <tripinfo-output value="../model/logs/TripInfos.xml"/>
    </output>

    <time>
        <begin value="0"/>
        <end value="86400"/>
        <step-length value="1"/>
    </time>

    <processing>
        <ignore-junction-blocker value="0.1"/>
        <time-to-teleport value="-1"/>
        <waiting-time-memory value="6000"/>
    </processing>

    <report>
        <verbose value="true"/>
        <no-step-log value="true"/>
    </report>

    <traci_server>
        <remote-port value="63210"/>
    </traci_server>

    <gui_only>
        <quit-on-end value="true"/>
        <start value="true"/>
    </gui_only>

</configuration>
-->

<tripinfos xmlns:xsi="http://www.w3.org/2001/XMLSchema-instance" xsi:noNamespaceSchemaLocation="http://sumo.dlr.de/xsd/tripinfo_file.xsd">
    <tripinfo id="VEH_5" depart="12.00" departLane="183049957#0_1" departPos="5.10" departSpeed="0.00" departDelay="0.00" arrival="28.00" arrivalLane="331752492#2_1" arrivalPos="66.46" arrivalSpeed="13.56" duration="16.00" routeLength="112.21" waitingTime="0.00" waitingCount="0" stopTime="0.00" timeLoss="6.81" rerouteNo="0" devices="tripinfo_VEH_5" vType="sumo_car" speedFactor="1.08" vaporized=""/>
    <tripinfo id="VEH_7" depart="17.00" departLane="183049957#0_1" departPos="14.45" departSpeed="0.00" departDelay="2.00" arrival="37.00" arrivalLane="331752492#2_1" arrivalPos="66.46" arrivalSpeed="9.83" duration="20.00" routeLength="102.86" waitingTime="0.00" waitingCount="0" stopTime="0.00" timeLoss="9.06" rerouteNo="0" devices="tripinfo_VEH_7" vType="sumo_truck" speedFactor="0.92" vaporized=""/>
    <tripinfo id="VEH_9" depart="23.00" departLane="183049957#0_1" departPos="5.10" departSpeed="0.00" departDelay="6.00" arrival="40.00" arrivalLane="331752492#2_1" arrivalPos="66.46" arrivalSpeed="11.69" duration="17.00" routeLength="112.21" waitingTime="0.00" waitingCount="0" stopTime="0.00" timeLoss="6.76" rerouteNo="0" devices="tripinfo_VEH_9" vType="sumo_car" speedFactor="0.89" vaporized=""/>
    <tripinfo id="VEH_11" depart="27.00" departLane="183049957#0_1" departPos="5.10" departSpeed="0.00" departDelay="6.00" arrival="43.00" arrivalLane="331752492#2_1" arrivalPos="66.46" arrivalSpeed="11.58" duration="16.00" routeLength="112.21" waitingTime="0.00" waitingCount="0" stopTime="0.00" timeLoss="6.05" rerouteNo="0" devices="tripinfo_VEH_11" vType="sumo_car" speedFactor="0.86" vaporized=""/>
    <tripinfo id="VEH_17" depart="31.00" departLane="183049957#0_1" departPos="5.10" departSpeed="0.00" departDelay="4.00" arrival="47.00" arrivalLane="331752492#2_1" arrivalPos="66.46" arrivalSpeed="12.84" duration="16.00" routeLength="112.21" waitingTime="0.00" waitingCount="0" stopTime="0.00" timeLoss="6.38" rerouteNo="0" devices="tripinfo_VEH_17" vType="sumo_car" speedFactor="0.93" vaporized=""/>
    <tripinfo id="VEH_20" depart="35.00" departLane="183049957#0_1" departPos="5.10" departSpeed="0.00" departDelay="2.00" arrival="51.00" arrivalLane="331752492#2_1" arrivalPos="66.46" arrivalSpeed="12.30" duration="16.00" routeLength="112.21" waitingTime="0.00" waitingCount="0" stopTime="0.00" timeLoss="6.91" rerouteNo="0" devices="tripinfo_VEH_20" vType="sumo_car" speedFactor="0.94" vaporized=""/>
    <tripinfo id="VEH_22" depart="42.00" departLane="183049957#0_1" departPos="5.10" departSpeed="0.00" departDelay="0.00" arrival="58.00" arrivalLane="331752492#2_1" arrivalPos="66.46" arrivalSpeed="13.82" duration="16.00" routeLength="112.21" waitingTime="0.00" waitingCount="0" stopTime="0.00" timeLoss="6.70" rerouteNo="0" devices="tripinfo_VEH_22" vType="sumo_car" speedFactor="1.02" vaporized=""/>
    <tripinfo id="VEH_14" depart="23.00" departLane="921020465#1_1" departPos="5.10" departSpeed="0.00" departDelay="0.00" arrival="69.00" arrivalLane="E4_1" arrivalPos="50.96" arrivalSpeed="13.76" duration="46.00" routeLength="425.49" waitingTime="0.00" waitingCount="0" stopTime="0.00" timeLoss="8.24" rerouteNo="0" devices="tripinfo_VEH_14" vType="sumo_car" speedFactor="1.05" vaporized=""/>
    <tripinfo id="VEH_40" depart="69.00" departLane="183049957#0_1" departPos="5.10" departSpeed="0.00" departDelay="0.00" arrival="85.00" arrivalLane="331752492#2_1" arrivalPos="66.46" arrivalSpeed="13.25" duration="16.00" routeLength="112.21" waitingTime="0.00" waitingCount="0" stopTime="0.00" timeLoss="6.93" rerouteNo="0" devices="tripinfo_VEH_40" vType="sumo_car" speedFactor="1.10" vaporized=""/>
    <tripinfo id="VEH_39" depart="71.00" departLane="921020465#1_1" departPos="5.10" departSpeed="0.00" departDelay="5.00" arrival="96.00" arrivalLane="183419043#1_1" arrivalPos="11.49" arrivalSpeed="12.41" duration="25.00" routeLength="172.24" waitingTime="2.00" waitingCount="1" stopTime="0.00" timeLoss="11.60" rerouteNo="0" devices="tripinfo_VEH_39" vType="sumo_car" speedFactor="1.18" vaporized=""/>
    <tripinfo id="VEH_53" depart="85.00" departLane="183049957#0_1" departPos="5.10" departSpeed="0.00" departDelay="0.00" arrival="101.00" arrivalLane="331752492#2_1" arrivalPos="66.46" arrivalSpeed="13.50" duration="16.00" routeLength="112.21" waitingTime="0.00" waitingCount="0" stopTime="0.00" timeLoss="6.98" rerouteNo="0" devices="tripinfo_VEH_53" vType="sumo_car" speedFactor="1.17" vaporized=""/>
    <tripinfo id="VEH_54" depart="85.00" departLane="-1169441386_1" departPos="2.30" departSpeed="0.00" departDelay="0.00" arrival="103.00" arrivalLane="694116204#2_2" arrivalPos="45.20" arrivalSpeed="13.25" duration="18.00" routeLength="178.29" waitingTime="0.00" waitingCount="0" stopTime="0.00" timeLoss="4.55" rerouteNo="0" devices="tripinfo_VEH_54" vType="sumo_motorcycle" speedFactor="1.02" vaporized=""/>
    <tripinfo id="VEH_42" depart="77.00" departLane="921020465#1_1" departPos="5.10" departSpeed="0.00" departDelay="8.00" arrival="107.00" arrivalLane="183419043#1_1" arrivalPos="11.49" arrivalSpeed="9.82" duration="30.00" routeLength="172.24" waitingTime="2.00" waitingCount="1" stopTime="0.00" timeLoss="16.27" rerouteNo="0" devices="tripinfo_VEH_42" vType="sumo_car" speedFactor="1.03" vaporized=""/>
    <tripinfo id="VEH_44" depart="83.00" departLane="921020465#1_1" departPos="2.30" departSpeed="0.00" departDelay="12.00" arrival="108.00" arrivalLane="183419043#1_1" arrivalPos="11.49" arrivalSpeed="10.48" duration="25.00" routeLength="175.04" waitingTime="0.00" waitingCount="0" stopTime="0.00" timeLoss="12.72" rerouteNo="0" devices="tripinfo_VEH_44" vType="sumo_motorcycle" speedFactor="1.09" vaporized=""/>
    <tripinfo id="VEH_45" depart="86.00" departLane="921020465#1_1" departPos="5.10" departSpeed="0.00" departDelay="13.00" arrival="110.00" arrivalLane="183419043#1_1" arrivalPos="11.49" arrivalSpeed="11.46" duration="24.00" routeLength="172.24" waitingTime="2.00" waitingCount="1" stopTime="0.00" timeLoss="10.52" rerouteNo="0" devices="tripinfo_VEH_45" vType="sumo_car" speedFactor="1.04" vaporized=""/>
    <tripinfo id="VEH_49" depart="96.00" departLane="921020465#1_1" departPos="5.10" departSpeed="0.00" departDelay="18.00" arrival="120.00" arrivalLane="183419043#1_1" arrivalPos="11.49" arrivalSpeed="11.61" duration="24.00" routeLength="172.24" waitingTime="1.00" waitingCount="1" stopTime="0.00" timeLoss="8.63" rerouteNo="0" devices="tripinfo_VEH_49" vType="sumo_car" speedFactor="0.90" vaporized=""/>
    <tripinfo id="VEH_46" depart="74.00" departLane="-1169441386_1" departPos="5.10" departSpeed="0.00" departDelay="0.00" arrival="124.00" arrivalLane="183419043#1_1" arrivalPos="11.49" arrivalSpeed="10.97" duration="50.00" routeLength="129.14" waitingTime="28.00" waitingCount="1" stopTime="0.00" timeLoss="40.60" rerouteNo="0" devices="tripinfo_VEH_46" vType="sumo_car" speedFactor="1.04" vaporized=""/>
    <tripinfo id="VEH_68" depart="107.00" departLane="183049957#0_1" departPos="5.10" departSpeed="0.00" departDelay="0.00" arrival="124.00" arrivalLane="331752492#2_1" arrivalPos="66.46" arrivalSpeed="12.13" duration="17.00" routeLength="112.21" waitingTime="0.00" waitingCount="0" stopTime="0.00" timeLoss="7.05" rerouteNo="0" devices="tripinfo_VEH_68" vType="sumo_car" speedFactor="0.91" vaporized=""/>
    <tripinfo id="VEH_75" depart="111.00" departLane="183049957#0_1" departPos="5.10" departSpeed="0.00" departDelay="0.00" arrival="127.00" arrivalLane="331752492#2_1" arrivalPos="66.46" arrivalSpeed="13.52" duration="16.00" routeLength="112.21" waitingTime="0.00" waitingCount="0" stopTime="0.00" timeLoss="6.79" rerouteNo="0" devices="tripinfo_VEH_75" vType="sumo_car" speedFactor="1.06" vaporized=""/>
    <tripinfo id="VEH_13" depart="23.00" departLane="-E4_1" departPos="5.10" departSpeed="0.00" departDelay="0.00" arrival="129.00" arrivalLane="-E2_1" arrivalPos="20.13" arrivalSpeed="10.50" duration="106.00" routeLength="88.22" waitingTime="87.00" waitingCount="1" stopTime="0.00" timeLoss="99.28" rerouteNo="0" devices="tripinfo_VEH_13" vType="sumo_car" speedFactor="1.03" vaporized=""/>
    <tripinfo id="VEH_16" depart="27.00" departLane="758088375#0_1" departPos="5.10" departSpeed="0.00" departDelay="0.00" arrival="129.00" arrivalLane="25973410#1_1" arrivalPos="32.08" arrivalSpeed="8.01" duration="102.00" routeLength="75.29" waitingTime="83.00" waitingCount="1" stopTime="0.00" timeLoss="92.26" rerouteNo="0" devices="tripinfo_VEH_16" vType="sumo_car" speedFactor="0.99" vaporized=""/>
    <tripinfo id="VEH_10" depart="19.00" departLane="-25973410#1_1" departPos="5.10" departSpeed="0.00" departDelay="1.00" arrival="131.00" arrivalLane="-758088375#0_1" arrivalPos="24.98" arrivalSpeed="7.41" duration="112.00" routeLength="75.26" waitingTime="93.00" waitingCount="1" stopTime="0.00" timeLoss="101.59" rerouteNo="0" devices="tripinfo_VEH_10" vType="sumo_car" speedFactor="0.94" vaporized=""/>
    <tripinfo id="VEH_26" depart="47.00" departLane="-E4_1" departPos="5.10" departSpeed="0.00" departDelay="0.00" arrival="131.00" arrivalLane="-E2_1" arrivalPos="20.13" arrivalSpeed="11.17" duration="84.00" routeLength="88.22" waitingTime="64.00" waitingCount="1" stopTime="0.00" timeLoss="75.97" rerouteNo="0" devices="tripinfo_VEH_26" vType="sumo_car" speedFactor="0.83" vaporized=""/>
    <tripinfo id="VEH_55" depart="86.00" departLane="758088375#0_1" departPos="5.10" departSpeed="0.00" departDelay="0.00" arrival="131.00" arrivalLane="25973410#1_1" arrivalPos="32.08" arrivalSpeed="9.00" duration="45.00" routeLength="75.29" waitingTime="29.00" waitingCount="1" stopTime="0.00" timeLoss="36.24" rerouteNo="0" devices="tripinfo_VEH_55" vType="sumo_car" speedFactor="1.10" vaporized=""/>
    <tripinfo id="VEH_15" depart="24.00" departLane="-183419042#1_1" departPos="5.10" departSpeed="0.00" departDelay="0.00" arrival="132.00" arrivalLane="331752492#2_1" arrivalPos="66.46" arrivalSpeed="13.47" duration="108.00" routeLength="268.79" waitingTime="75.00" waitingCount="1" stopTime="0.00" timeLoss="87.71" rerouteNo="0" devices="tripinfo_VEH_15" vType="sumo_car" speedFactor="1.12" vaporized=""/>
    <tripinfo id="VEH_79" depart="115.00" departLane="183049957#0_1" departPos="5.10" departSpeed="0.00" departDelay="2.00" arrival="138.00" arrivalLane="331752492#2_1" arrivalPos="66.46" arrivalSpeed="13.34" duration="23.00" routeLength="112.21" waitingTime="2.00" waitingCount="1" stopTime="0.00" timeLoss="13.29" rerouteNo="0" devices="tripinfo_VEH_79" vType="sumo_car" speedFactor="0.98" vaporized=""/>
    <tripinfo id="VEH_82" depart="118.00" departLane="183049957#0_1" departPos="2.30" departSpeed="0.00" departDelay="0.00" arrival="139.00" arrivalLane="331752492#2_1" arrivalPos="66.46" arrivalSpeed="13.62" duration="21.00" routeLength="115.01" waitingTime="0.00" waitingCount="0" stopTime="0.00" timeLoss="12.07" rerouteNo="0" devices="tripinfo_VEH_82" vType="sumo_motorcycle" speedFactor="1.03" vaporized=""/>
    <tripinfo id="VEH_88" depart="124.00" departLane="183049957#0_1" departPos="5.10" departSpeed="0.00" departDelay="0.00" arrival="141.00" arrivalLane="331752492#2_1" arrivalPos="66.46" arrivalSpeed="13.31" duration="17.00" routeLength="112.21" waitingTime="0.00" waitingCount="0" stopTime="0.00" timeLoss="8.09" rerouteNo="0" devices="tripinfo_VEH_88" vType="sumo_car" speedFactor="1.00" vaporized=""/>
    <tripinfo id="VEH_98" depart="135.00" departLane="183049957#0_1" departPos="5.10" departSpeed="0.00" departDelay="0.00" arrival="152.00" arrivalLane="331752492#2_1" arrivalPos="66.46" arrivalSpeed="13.18" duration="17.00" routeLength="112.21" waitingTime="0.00" waitingCount="0" stopTime="0.00" timeLoss="7.84" rerouteNo="0" devices="tripinfo_VEH_98" vType="sumo_car" speedFactor="1.01" vaporized=""/>
    <tripinfo id="VEH_101" depart="138.00" departLane="183049957#0_1" departPos="2.30" departSpeed="0.00" departDelay="1.00" arrival="153.00" arrivalLane="331752492#2_1" arrivalPos="66.46" arrivalSpeed="15.07" duration="15.00" routeLength="115.01" waitingTime="0.00" waitingCount="0" stopTime="0.00" timeLoss="6.82" rerouteNo="0" devices="tripinfo_VEH_101" vType="sumo_motorcycle" speedFactor="1.10" vaporized=""/>
    <tripinfo id="VEH_106" depart="144.00" departLane="758088375#0_1" departPos="5.10" departSpeed="0.00" departDelay="0.00" arrival="158.00" arrivalLane="25973410#1_1" arrivalPos="32.08" arrivalSpeed="7.25" duration="14.00" routeLength="75.29" waitingTime="0.00" waitingCount="0" stopTime="0.00" timeLoss="3.31" rerouteNo="0" devices="tripinfo_VEH_106" vType="sumo_car" speedFactor="0.89" vaporized=""/>
    <tripinfo id="VEH_105" depart="144.00" departLane="-1169441386_1" departPos="5.10" departSpeed="0.00" departDelay="2.00" arrival="163.00" arrivalLane="183419043#1_1" arrivalPos="11.49" arrivalSpeed="12.78" duration="19.00" routeLength="129.14" waitingTime="0.00" waitingCount="0" stopTime="0.00" timeLoss="8.49" rerouteNo="0" devices="tripinfo_VEH_105" vType="sumo_car" speedFactor="0.95" vaporized=""/>
    <tripinfo id="VEH_100" depart="137.00" departLane="-183419042#1_1" departPos="5.10" departSpeed="0.00" departDelay="0.00" arrival="164.00" arrivalLane="331752492#2_1" arrivalPos="66.46" arrivalSpeed="13.55" duration="27.00" routeLength="268.79" waitingTime="0.00" waitingCount="0" stopTime="0.00" timeLoss="6.79" rerouteNo="0" devices="tripinfo_VEH_100" vType="sumo_car" speedFactor="1.12" vaporized=""/>
    <tripinfo id="VEH_112" depart="150.00" departLane="183049957#0_1" departPos="2.30" departSpeed="0.00" departDelay="0.00" arrival="168.00" arrivalLane="331752492#2_1" arrivalPos="66.46" arrivalSpeed="12.05" duration="18.00" routeLength="115.01" waitingTime="1.00" waitingCount="1" stopTime="0.00" timeLoss="8.51" rerouteNo="0" devices="tripinfo_VEH_112" vType="sumo_motorcycle" speedFactor="0.93" vaporized=""/>
    <tripinfo id="VEH_130" depart="171.00" departLane="183049957#0_1" departPos="2.30" departSpeed="0.00" departDelay="0.00" arrival="185.00" arrivalLane="331752492#2_1" arrivalPos="66.46" arrivalSpeed="14.78" duration="14.00" routeLength="115.01" waitingTime="0.00" waitingCount="0" stopTime="0.00" timeLoss="5.55" rerouteNo="0" devices="tripinfo_VEH_130" vType="sumo_motorcycle" speedFactor="1.12" vaporized=""/>
    <tripinfo id="VEH_3" depart="5.00" departLane="-E4_1" departPos="5.10" departSpeed="0.00" departDelay="0.00" arrival="188.00" arrivalLane="-758088375#0_1" arrivalPos="24.98" arrivalSpeed="7.17" duration="183.00" routeLength="212.81" waitingTime="145.00" waitingCount="2" stopTime="0.00" timeLoss="160.26" rerouteNo="0" devices="tripinfo_VEH_3" vType="sumo_car" speedFactor="0.94" vaporized=""/>
    <tripinfo id="VEH_84" depart="122.00" departLane="-E4_1" departPos="5.10" departSpeed="0.00" departDelay="0.00" arrival="190.00" arrivalLane="-758088375#0_1" arrivalPos="24.98" arrivalSpeed="8.45" duration="68.00" routeLength="212.81" waitingTime="34.00" waitingCount="1" stopTime="0.00" timeLoss="47.17" rerouteNo="0" devices="tripinfo_VEH_84" vType="sumo_car" speedFactor="1.02" vaporized=""/>
    <tripinfo id="VEH_110" depart="154.00" departLane="-1169441386_1" departPos="5.10" departSpeed="0.00" departDelay="7.00" arrival="190.00" arrivalLane="183419043#1_1" arrivalPos="11.49" arrivalSpeed="11.15" duration="36.00" routeLength="129.14" waitingTime="13.00" waitingCount="1" stopTime="0.00" timeLoss="26.33" rerouteNo="0" devices="tripinfo_VEH_110" vType="sumo_car" speedFactor="1.06" vaporized=""/>
    <tripinfo id="VEH_103" depart="139.00" departLane="-1169441386_1" departPos="5.10" departSpeed="0.00" departDelay="0.00" arrival="191.00" arrivalLane="694116204#2_2" arrivalPos="45.20" arrivalSpeed="13.23" duration="52.00" routeLength="175.49" waitingTime="25.00" waitingCount="1" stopTime="0.00" timeLoss="38.75" rerouteNo="0" devices="tripinfo_VEH_103" vType="sumo_car" speedFactor="0.96" vaporized=""/>
    <tripinfo id="VEH_89" depart="126.00" departLane="-E4_1" departPos="5.10" departSpeed="0.00" departDelay="1.00" arrival="192.00" arrivalLane="-758088375#0_1" arrivalPos="24.98" arrivalSpeed="8.35" duration="66.00" routeLength="212.81" waitingTime="33.00" waitingCount="1" stopTime="0.00" timeLoss="45.76" rerouteNo="0" devices="tripinfo_VEH_89" vType="sumo_car" speedFactor="1.04" vaporized=""/>
    <tripinfo id="VEH_104" depart="142.00" departLane="-1169441386_1" departPos="2.30" departSpeed="0.00" departDelay="1.00" arrival="193.00" arrivalLane="694116204#2_2" arrivalPos="45.20" arrivalSpeed="12.53" duration="51.00" routeLength="178.29" waitingTime="25.00" waitingCount="1" stopTime="0.00" timeLoss="37.52" rerouteNo="0" devices="tripinfo_VEH_104" vType="sumo_motorcycle" speedFactor="0.97" vaporized=""/>
    <tripinfo id="VEH_107" depart="148.00" departLane="-1169441386_1" departPos="5.10" departSpeed="0.00" departDelay="4.00" arrival="195.00" arrivalLane="694116204#2_2" arrivalPos="45.20" arrivalSpeed="13.76" duration="47.00" routeLength="175.49" waitingTime="20.00" waitingCount="1" stopTime="0.00" timeLoss="34.31" rerouteNo="0" devices="tripinfo_VEH_107" vType="sumo_car" speedFactor="1.07" vaporized=""/>
    <tripinfo id="VEH_93" depart="133.00" departLane="-E4_1" departPos="5.10" departSpeed="0.00" departDelay="4.00" arrival="196.00" arrivalLane="-758088375#0_1" arrivalPos="24.98" arrivalSpeed="7.16" duration="63.00" routeLength="212.81" waitingTime="26.00" waitingCount="2" stopTime="0.00" timeLoss="39.00" rerouteNo="0" devices="tripinfo_VEH_93" vType="sumo_car" speedFactor="0.89" vaporized=""/>
    <tripinfo id="VEH_136" depart="182.00" departLane="183049957#0_1" departPos="5.10" departSpeed="0.00" departDelay="0.00" arrival="197.00" arrivalLane="331752492#2_1" arrivalPos="66.46" arrivalSpeed="13.87" duration="15.00" routeLength="112.21" waitingTime="0.00" waitingCount="0" stopTime="0.00" timeLoss="6.29" rerouteNo="0" devices="tripinfo_VEH_136" vType="sumo_car" speedFactor="1.23" vaporized=""/>
    <tripinfo id="VEH_24" depart="44.00" departLane="23320502_1" departPos="5.10" departSpeed="0.00" departDelay="0.00" arrival="202.00" arrivalLane="25973410#1_1" arrivalPos="32.08" arrivalSpeed="7.71" duration="158.00" routeLength="524.68" waitingTime="76.00" waitingCount="2" stopTime="0.00" timeLoss="100.23" rerouteNo="0" devices="tripinfo_VEH_24" vType="sumo_car" speedFactor="0.97" vaporized=""/>
    <tripinfo id="VEH_138" depart="186.00" departLane="183049957#0_1" departPos="5.10" departSpeed="0.00" departDelay="2.00" arrival="202.00" arrivalLane="331752492#2_1" arrivalPos="66.46" arrivalSpeed="13.16" duration="16.00" routeLength="112.21" waitingTime="0.00" waitingCount="0" stopTime="0.00" timeLoss="6.66" rerouteNo="0" devices="tripinfo_VEH_138" vType="sumo_car" speedFactor="1.12" vaporized=""/>
    <tripinfo id="VEH_140" depart="189.00" departLane="183049957#0_1" departPos="5.10" departSpeed="0.00" departDelay="0.00" arrival="206.00" arrivalLane="331752492#2_1" arrivalPos="66.46" arrivalSpeed="13.34" duration="17.00" routeLength="112.21" waitingTime="0.00" waitingCount="0" stopTime="0.00" timeLoss="7.69" rerouteNo="0" devices="tripinfo_VEH_140" vType="sumo_car" speedFactor="1.00" vaporized=""/>
    <tripinfo id="VEH_142" depart="193.00" departLane="183049957#0_1" departPos="5.10" departSpeed="0.00" departDelay="2.00" arrival="210.00" arrivalLane="331752492#2_1" arrivalPos="66.46" arrivalSpeed="13.15" duration="17.00" routeLength="112.21" waitingTime="0.00" waitingCount="0" stopTime="0.00" timeLoss="8.12" rerouteNo="0" devices="tripinfo_VEH_142" vType="sumo_car" speedFactor="1.11" vaporized=""/>
    <tripinfo id="VEH_143" depart="192.00" departLane="-1169441386_1" departPos="5.10" departSpeed="0.00" departDelay="0.00" arrival="211.00" arrivalLane="694116204#2_2" arrivalPos="45.20" arrivalSpeed="13.21" duration="19.00" routeLength="175.49" waitingTime="0.00" waitingCount="0" stopTime="0.00" timeLoss="5.83" rerouteNo="0" devices="tripinfo_VEH_143" vType="sumo_car" speedFactor="1.16" vaporized=""/>
    <tripinfo id="VEH_144" depart="194.00" departLane="-1169441386_1" departPos="5.10" departSpeed="0.00" departDelay="2.00" arrival="212.00" arrivalLane="183419043#1_1" arrivalPos="11.49" arrivalSpeed="12.42" duration="18.00" routeLength="129.14" waitingTime="0.00" waitingCount="0" stopTime="0.00" timeLoss="7.78" rerouteNo="0" devices="tripinfo_VEH_144" vType="sumo_car" speedFactor="0.94" vaporized=""/>
    <tripinfo id="VEH_149" depart="201.00" departLane="183049957#0_1" departPos="5.10" departSpeed="0.00" departDelay="0.00" arrival="217.00" arrivalLane="331752492#2_1" arrivalPos="66.46" arrivalSpeed="13.75" duration="16.00" routeLength="112.21" waitingTime="0.00" waitingCount="0" stopTime="0.00" timeLoss="6.72" rerouteNo="0" devices="tripinfo_VEH_149" vType="sumo_car" speedFactor="1.00" vaporized=""/>
    <tripinfo id="VEH_28" depart="50.00" departLane="1162834479#1_1" departPos="0.20" departSpeed="0.00" departDelay="0.00" arrival="221.00" arrivalLane="183419043#1_1" arrivalPos="11.49" arrivalSpeed="10.31" duration="171.00" routeLength="931.93" waitingTime="32.00" waitingCount="2" stopTime="0.00" timeLoss="58.34" rerouteNo="0" devices="tripinfo_VEH_28" vType="sumo_car" speedFactor="0.92" vaporized=""/>
    <tripinfo id="VEH_58" depart="93.00" departLane="-E4_1" departPos="5.10" departSpeed="0.00" departDelay="0.00" arrival="226.00" arrivalLane="-E13_1" arrivalPos="59.59" arrivalSpeed="11.97" duration="133.00" routeLength="798.13" waitingTime="21.00" waitingCount="1" stopTime="0.00" timeLoss="36.94" rerouteNo="0" devices="tripinfo_VEH_58" vType="sumo_car" speedFactor="0.90" vaporized=""/>
    <tripinfo id="VEH_78" depart="112.00" departLane="-E4_1" departPos="5.10" departSpeed="0.00" departDelay="0.00" arrival="228.00" arrivalLane="-E13_1" arrivalPos="59.59" arrivalSpeed="13.70" duration="116.00" routeLength="798.13" waitingTime="3.00" waitingCount="1" stopTime="0.00" timeLoss="31.76" rerouteNo="0" devices="tripinfo_VEH_78" vType="sumo_car" speedFactor="1.03" vaporized=""/>
    <tripinfo id="VEH_60" depart="96.00" departLane="1162834479#1_1" departPos="0.20" departSpeed="0.00" departDelay="0.00" arrival="234.00" arrivalLane="183419043#1_1" arrivalPos="11.49" arrivalSpeed="10.97" duration="138.00" routeLength="931.93" waitingTime="9.00" waitingCount="1" stopTime="0.00" timeLoss="37.78" rerouteNo="0" devices="tripinfo_VEH_60" vType="sumo_car" speedFactor="1.02" vaporized=""/>
    <tripinfo id="VEH_164" depart="222.00" departLane="183049957#0_1" departPos="5.10" departSpeed="0.00" departDelay="0.00" arrival="238.00" arrivalLane="331752492#2_1" arrivalPos="66.46" arrivalSpeed="13.07" duration="16.00" routeLength="112.21" waitingTime="0.00" waitingCount="0" stopTime="0.00" timeLoss="6.91" rerouteNo="0" devices="tripinfo_VEH_164" vType="sumo_car" speedFactor="0.99" vaporized=""/>
    <tripinfo id="VEH_170" depart="226.00" departLane="183049957#0_1" departPos="5.10" departSpeed="0.00" departDelay="1.00" arrival="242.00" arrivalLane="331752492#2_1" arrivalPos="66.46" arrivalSpeed="13.50" duration="16.00" routeLength="112.21" waitingTime="0.00" waitingCount="0" stopTime="0.00" timeLoss="6.72" rerouteNo="0" devices="tripinfo_VEH_170" vType="sumo_car" speedFactor="0.98" vaporized=""/>
    <tripinfo id="VEH_171" depart="230.00" departLane="183049957#0_1" departPos="5.10" departSpeed="0.00" departDelay="4.00" arrival="246.00" arrivalLane="331752492#2_1" arrivalPos="66.46" arrivalSpeed="12.52" duration="16.00" routeLength="112.21" waitingTime="0.00" waitingCount="0" stopTime="0.00" timeLoss="6.71" rerouteNo="0" devices="tripinfo_VEH_171" vType="sumo_car" speedFactor="0.94" vaporized=""/>
    <tripinfo id="VEH_177" depart="234.00" departLane="183049957#0_1" departPos="5.10" departSpeed="0.00" departDelay="5.00" arrival="251.00" arrivalLane="331752492#2_1" arrivalPos="66.46" arrivalSpeed="12.76" duration="17.00" routeLength="112.21" waitingTime="0.00" waitingCount="0" stopTime="0.00" timeLoss="7.00" rerouteNo="0" devices="tripinfo_VEH_177" vType="sumo_car" speedFactor="0.92" vaporized=""/>
    <tripinfo id="VEH_156" depart="211.00" departLane="-183419042#1_1" departPos="5.10" departSpeed="0.00" departDelay="3.00" arrival="253.00" arrivalLane="331752492#2_1" arrivalPos="66.46" arrivalSpeed="13.89" duration="42.00" routeLength="268.79" waitingTime="6.00" waitingCount="1" stopTime="0.00" timeLoss="22.08" rerouteNo="0" devices="tripinfo_VEH_156" vType="sumo_car" speedFactor="1.06" vaporized=""/>
    <tripinfo id="VEH_158" depart="221.00" departLane="-183419042#1_1" departPos="15.10" departSpeed="0.00" departDelay="10.00" arrival="256.00" arrivalLane="331752492#2_1" arrivalPos="66.46" arrivalSpeed="9.85" duration="35.00" routeLength="258.79" waitingTime="0.00" waitingCount="0" stopTime="0.00" timeLoss="9.02" rerouteNo="0" devices="tripinfo_VEH_158" vType="sumo_truck" speedFactor="1.09" vaporized=""/>
    <tripinfo id="VEH_200" depart="262.00" departLane="183049957#0_1" departPos="2.30" departSpeed="0.00" departDelay="0.00" arrival="276.00" arrivalLane="331752492#2_1" arrivalPos="66.46" arrivalSpeed="14.41" duration="14.00" routeLength="115.01" waitingTime="0.00" waitingCount="0" stopTime="0.00" timeLoss="5.63" rerouteNo="0" devices="tripinfo_VEH_200" vType="sumo_motorcycle" speedFactor="1.06" vaporized=""/>
    <tripinfo id="VEH_213" depart="276.00" departLane="183049957#0_1" departPos="5.10" departSpeed="0.00" departDelay="0.00" arrival="292.00" arrivalLane="331752492#2_1" arrivalPos="66.46" arrivalSpeed="13.57" duration="16.00" routeLength="112.21" waitingTime="0.00" waitingCount="0" stopTime="0.00" timeLoss="6.67" rerouteNo="0" devices="tripinfo_VEH_213" vType="sumo_car" speedFactor="1.04" vaporized=""/>
    <tripinfo id="BUS_1-route_114" depart="0.00" departLane="-37181834#3_0" departPos="12.10" departSpeed="0.00" departDelay="0.00" arrival="301.00" arrivalLane="183419042#9_0" arrivalPos="17.60" arrivalSpeed="13.48" duration="301.00" routeLength="1568.26" waitingTime="19.00" waitingCount="1" stopTime="60.00" timeLoss="88.58" rerouteNo="0" devices="tripinfo_BUS_1-route_114" vType="sumo_bus" speedFactor="1.00" vaporized=""/>
    <tripinfo id="VEH_56" depart="87.00" departLane="758088375#0_1" departPos="5.10" departSpeed="0.00" departDelay="0.00" arrival="309.00" arrivalLane="E4_1" arrivalPos="50.96" arrivalSpeed="12.91" duration="222.00" routeLength="211.40" waitingTime="186.00" waitingCount="2" stopTime="0.00" timeLoss="202.36" rerouteNo="0" devices="tripinfo_VEH_56" vType="sumo_car" speedFactor="1.00" vaporized=""/>
    <tripinfo id="VEH_229" depart="294.00" departLane="183049957#0_1" departPos="5.10" departSpeed="0.00" departDelay="0.00" arrival="310.00" arrivalLane="331752492#2_1" arrivalPos="66.46" arrivalSpeed="13.25" duration="16.00" routeLength="112.21" waitingTime="0.00" waitingCount="0" stopTime="0.00" timeLoss="6.67" rerouteNo="0" devices="tripinfo_VEH_229" vType="sumo_car" speedFactor="1.11" vaporized=""/>
    <tripinfo id="VEH_18" depart="28.00" departLane="921020465#1_1" departPos="5.10" departSpeed="0.00" departDelay="0.00" arrival="312.00" arrivalLane="E4_1" arrivalPos="50.96" arrivalSpeed="11.47" duration="284.00" routeLength="425.49" waitingTime="221.00" waitingCount="2" stopTime="0.00" timeLoss="240.41" rerouteNo="0" devices="tripinfo_VEH_18" vType="sumo_car" speedFactor="0.88" vaporized=""/>
    <tripinfo id="VEH_205" depart="269.00" departLane="-1169441386_1" departPos="5.10" departSpeed="0.00" departDelay="0.00" arrival="312.00" arrivalLane="694116204#2_2" arrivalPos="45.20" arrivalSpeed="13.46" duration="43.00" routeLength="175.49" waitingTime="16.00" waitingCount="1" stopTime="0.00" timeLoss="29.63" rerouteNo="0" devices="tripinfo_VEH_205" vType="sumo_car" speedFactor="1.11" vaporized=""/>
    <tripinfo id="VEH_208" depart="275.00" departLane="-1169441386_1" departPos="5.10" departSpeed="0.00" departDelay="2.00" arrival="313.00" arrivalLane="694116204#2_2" arrivalPos="45.20" arrivalSpeed="13.61" duration="38.00" routeLength="175.49" waitingTime="11.00" waitingCount="1" stopTime="0.00" timeLoss="25.24" rerouteNo="0" devices="tripinfo_VEH_208" vType="sumo_car" speedFactor="1.00" vaporized=""/>
    <tripinfo id="VEH_52" depart="81.00" departLane="758088375#0_1" departPos="5.10" departSpeed="0.00" departDelay="0.00" arrival="317.00" arrivalLane="-E13_1" arrivalPos="59.59" arrivalSpeed="11.15" duration="236.00" routeLength="892.87" waitingTime="99.00" waitingCount="3" stopTime="0.00" timeLoss="123.08" rerouteNo="0" devices="tripinfo_VEH_52" vType="sumo_car" speedFactor="0.85" vaporized=""/>