<?xml version="1.0" encoding="UTF-8"?>

<!-- generated on 2025-06-28 15:02:57 by Eclipse SUMO sumo Version 1.19.0
<configuration xmlns:xsi="http://www.w3.org/2001/XMLSchema-instance" xsi:noNamespaceSchemaLocation="http://sumo.dlr.de/xsd/sumoConfiguration.xsd">

    <input>
        <net-file value="../model/Network.net.xml"/>
        <route-files value="../model/CarRoutes.rou.xml"/>
        <additional-files value="../model/BusStops.add.xml"/>
    </input>

    <output>
        <summary-output value="../model/logs/Log_summary.xml"/>
        <summary-output.period value="300"/>
        <tripinfo-output value="../model/logs/TripInfos.xml"/>
    </output>

    <time>
        <begin value="0"/>
        <end value="86400"/>
        <step-length value="1"/>
    </time>

    <processing>
        <ignore-junction-blocker value="0.1"/>
        <time-to-teleport value="-1"/>
        <waiting-time-memory value="6000"/>
    </processing>

    <report>
        <verbose value="true"/>
        <no-step-log value="true"/>
    </report>

    <traci_server>
        <remote-port value="62213"/>
    </traci_server>

    <gui_only>
        <quit-on-end value="true"/>
        <start value="true"/>
    </gui_only>

</configuration>
-->

<tripinfos xmlns:xsi="http://www.w3.org/2001/XMLSchema-instance" xsi:noNamespaceSchemaLocation="http://sumo.dlr.de/xsd/tripinfo_file.xsd">
    <tripinfo id="VEH_5" depart="12.00" departLane="183049957#0_1" departPos="5.10" departSpeed="0.00" departDelay="0.00" arrival="28.00" arrivalLane="331752492#2_1" arrivalPos="66.46" arrivalSpeed="13.19" duration="16.00" routeLength="112.21" waitingTime="0.00" waitingCount="0" stopTime="0.00" timeLoss="6.88" rerouteNo="0" devices="tripinfo_VEH_5" vType="sumo_car" speedFactor="1.08" vaporized=""/>
    <tripinfo id="VEH_7" depart="16.00" departLane="183049957#0_1" departPos="5.10" departSpeed="0.00" departDelay="1.00" arrival="33.00" arrivalLane="331752492#2_1" arrivalPos="66.46" arrivalSpeed="11.42" duration="17.00" routeLength="112.21" waitingTime="0.00" waitingCount="0" stopTime="0.00" timeLoss="6.08" rerouteNo="0" devices="tripinfo_VEH_7" vType="sumo_car" speedFactor="0.83" vaporized=""/>
    <tripinfo id="VEH_9" depart="20.00" departLane="183049957#0_1" departPos="5.10" departSpeed="0.00" departDelay="3.00" arrival="37.00" arrivalLane="331752492#2_1" arrivalPos="66.46" arrivalSpeed="11.92" duration="17.00" routeLength="112.21" waitingTime="0.00" waitingCount="0" stopTime="0.00" timeLoss="6.73" rerouteNo="0" devices="tripinfo_VEH_9" vType="sumo_car" speedFactor="0.89" vaporized=""/>
    <tripinfo id="VEH_11" depart="24.00" departLane="183049957#0_1" departPos="5.10" departSpeed="0.00" departDelay="3.00" arrival="40.00" arrivalLane="331752492#2_1" arrivalPos="66.46" arrivalSpeed="11.48" duration="16.00" routeLength="112.21" waitingTime="0.00" waitingCount="0" stopTime="0.00" timeLoss="6.08" rerouteNo="0" devices="tripinfo_VEH_11" vType="sumo_car" speedFactor="0.86" vaporized=""/>
    <tripinfo id="VEH_17" depart="28.00" departLane="183049957#0_1" departPos="5.10" departSpeed="0.00" departDelay="1.00" arrival="44.00" arrivalLane="331752492#2_1" arrivalPos="66.46" arrivalSpeed="12.38" duration="16.00" routeLength="112.21" waitingTime="0.00" waitingCount="0" stopTime="0.00" timeLoss="6.64" rerouteNo="0" devices="tripinfo_VEH_17" vType="sumo_car" speedFactor="0.93" vaporized=""/>
    <tripinfo id="VEH_20" depart="33.00" departLane="183049957#0_1" departPos="5.10" departSpeed="0.00" departDelay="0.00" arrival="49.00" arrivalLane="331752492#2_1" arrivalPos="66.46" arrivalSpeed="12.75" duration="16.00" routeLength="112.21" waitingTime="0.00" waitingCount="0" stopTime="0.00" timeLoss="6.50" rerouteNo="0" devices="tripinfo_VEH_20" vType="sumo_car" speedFactor="0.94" vaporized=""/>
    <tripinfo id="VEH_22" depart="42.00" departLane="183049957#0_1" departPos="5.10" departSpeed="0.00" departDelay="0.00" arrival="58.00" arrivalLane="331752492#2_1" arrivalPos="66.46" arrivalSpeed="13.69" duration="16.00" routeLength="112.21" waitingTime="0.00" waitingCount="0" stopTime="0.00" timeLoss="6.86" rerouteNo="0" devices="tripinfo_VEH_22" vType="sumo_car" speedFactor="1.02" vaporized=""/>
    <tripinfo id="VEH_13" depart="23.00" departLane="-E4_1" departPos="2.30" departSpeed="0.00" departDelay="0.00" arrival="69.00" arrivalLane="-E2_1" arrivalPos="20.13" arrivalSpeed="12.51" duration="46.00" routeLength="91.02" waitingTime="27.00" waitingCount="1" stopTime="0.00" timeLoss="38.78" rerouteNo="0" devices="tripinfo_VEH_13" vType="sumo_motorcycle" speedFactor="1.03" vaporized=""/>
    <tripinfo id="VEH_26" depart="47.00" departLane="-E4_1" departPos="5.10" departSpeed="0.00" departDelay="0.00" arrival="71.00" arrivalLane="-E2_1" arrivalPos="20.13" arrivalSpeed="10.69" duration="24.00" routeLength="88.22" waitingTime="4.00" waitingCount="1" stopTime="0.00" timeLoss="15.70" rerouteNo="0" devices="tripinfo_VEH_26" vType="sumo_car" speedFactor="0.83" vaporized=""/>
    <tripinfo id="VEH_3" depart="5.00" departLane="-E4_1" departPos="5.10" departSpeed="0.00" departDelay="0.00" arrival="82.00" arrivalLane="-758088375#0_1" arrivalPos="24.98" arrivalSpeed="7.45" duration="77.00" routeLength="212.81" waitingTime="44.00" waitingCount="1" stopTime="0.00" timeLoss="54.86" rerouteNo="0" devices="tripinfo_VEH_3" vType="sumo_car" speedFactor="0.94" vaporized=""/>
    <tripinfo id="VEH_40" depart="69.00" departLane="183049957#0_1" departPos="5.10" departSpeed="0.00" departDelay="0.00" arrival="84.00" arrivalLane="331752492#2_1" arrivalPos="66.46" arrivalSpeed="13.73" duration="15.00" routeLength="112.21" waitingTime="0.00" waitingCount="0" stopTime="0.00" timeLoss="6.49" rerouteNo="0" devices="tripinfo_VEH_40" vType="sumo_car" speedFactor="1.10" vaporized=""/>
    <tripinfo id="VEH_46" depart="74.00" departLane="-1169441386_1" departPos="5.10" departSpeed="0.00" departDelay="0.00" arrival="93.00" arrivalLane="183419043#1_1" arrivalPos="11.49" arrivalSpeed="12.34" duration="19.00" routeLength="129.14" waitingTime="0.00" waitingCount="0" stopTime="0.00" timeLoss="8.99" rerouteNo="0" devices="tripinfo_VEH_46" vType="sumo_car" speedFactor="1.04" vaporized=""/>
    <tripinfo id="VEH_53" depart="85.00" departLane="183049957#0_1" departPos="5.10" departSpeed="0.00" departDelay="0.00" arrival="101.00" arrivalLane="331752492#2_1" arrivalPos="66.46" arrivalSpeed="13.34" duration="16.00" routeLength="112.21" waitingTime="0.00" waitingCount="0" stopTime="0.00" timeLoss="6.95" rerouteNo="0" devices="tripinfo_VEH_53" vType="sumo_car" speedFactor="1.17" vaporized=""/>
    <tripinfo id="VEH_54" depart="85.00" departLane="-1169441386_1" departPos="6.60" departSpeed="0.00" departDelay="0.00" arrival="108.00" arrivalLane="694116204#2_2" arrivalPos="45.20" arrivalSpeed="10.71" duration="23.00" routeLength="173.99" waitingTime="0.00" waitingCount="0" stopTime="0.00" timeLoss="7.29" rerouteNo="0" devices="tripinfo_VEH_54" vType="sumo_transporter" speedFactor="1.01" vaporized=""/>
    <tripinfo id="VEH_39" depart="77.00" departLane="921020465#1_1" departPos="5.10" departSpeed="0.00" departDelay="11.00" arrival="110.00" arrivalLane="183419043#1_1" arrivalPos="11.49" arrivalSpeed="9.69" duration="33.00" routeLength="172.24" waitingTime="4.00" waitingCount="2" stopTime="0.00" timeLoss="20.00" rerouteNo="0" devices="tripinfo_VEH_39" vType="sumo_car" speedFactor="1.18" vaporized=""/>
    <tripinfo id="VEH_42" depart="83.00" departLane="921020465#1_1" departPos="5.10" departSpeed="0.00" departDelay="14.00" arrival="113.00" arrivalLane="183419043#1_1" arrivalPos="11.49" arrivalSpeed="10.25" duration="30.00" routeLength="172.24" waitingTime="0.00" waitingCount="0" stopTime="0.00" timeLoss="16.46" rerouteNo="0" devices="tripinfo_VEH_42" vType="sumo_car" speedFactor="1.03" vaporized=""/>
    <tripinfo id="VEH_44" depart="87.00" departLane="921020465#1_1" departPos="5.10" departSpeed="0.00" departDelay="16.00" arrival="115.00" arrivalLane="183419043#1_1" arrivalPos="11.49" arrivalSpeed="11.34" duration="28.00" routeLength="172.24" waitingTime="3.00" waitingCount="1" stopTime="0.00" timeLoss="14.44" rerouteNo="0" devices="tripinfo_VEH_44" vType="sumo_car" speedFactor="1.09" vaporized=""/>
    <tripinfo id="VEH_45" depart="92.00" departLane="921020465#1_1" departPos="5.10" departSpeed="0.00" departDelay="19.00" arrival="117.00" arrivalLane="183419043#1_1" arrivalPos="11.49" arrivalSpeed="12.21" duration="25.00" routeLength="172.24" waitingTime="0.00" waitingCount="0" stopTime="0.00" timeLoss="11.36" rerouteNo="0" devices="tripinfo_VEH_45" vType="sumo_car" speedFactor="1.04" vaporized=""/>
    <tripinfo id="VEH_49" depart="100.00" departLane="921020465#1_1" departPos="5.10" departSpeed="0.00" departDelay="22.00" arrival="125.00" arrivalLane="183419043#1_1" arrivalPos="11.49" arrivalSpeed="11.20" duration="25.00" routeLength="172.24" waitingTime="1.00" waitingCount="1" stopTime="0.00" timeLoss="10.18" rerouteNo="0" devices="tripinfo_VEH_49" vType="sumo_car" speedFactor="0.90" vaporized=""/>
    <tripinfo id="VEH_68" depart="107.00" departLane="183049957#0_1" departPos="14.45" departSpeed="0.00" departDelay="0.00" arrival="127.00" arrivalLane="331752492#2_1" arrivalPos="66.46" arrivalSpeed="9.84" duration="20.00" routeLength="102.86" waitingTime="0.00" waitingCount="0" stopTime="0.00" timeLoss="8.56" rerouteNo="0" devices="tripinfo_VEH_68" vType="sumo_truck" speedFactor="0.95" vaporized=""/>
    <tripinfo id="VEH_75" depart="112.00" departLane="183049957#0_1" departPos="5.10" departSpeed="0.00" departDelay="1.00" arrival="129.00" arrivalLane="331752492#2_1" arrivalPos="66.46" arrivalSpeed="13.53" duration="17.00" routeLength="112.21" waitingTime="0.00" waitingCount="0" stopTime="0.00" timeLoss="8.10" rerouteNo="0" devices="tripinfo_VEH_75" vType="sumo_car" speedFactor="1.06" vaporized=""/>
    <tripinfo id="VEH_79" depart="116.00" departLane="183049957#0_1" departPos="2.30" departSpeed="0.00" departDelay="3.00" arrival="131.00" arrivalLane="331752492#2_1" arrivalPos="66.46" arrivalSpeed="13.13" duration="15.00" routeLength="115.01" waitingTime="0.00" waitingCount="0" stopTime="0.00" timeLoss="6.16" rerouteNo="0" devices="tripinfo_VEH_79" vType="sumo_motorcycle" speedFactor="0.98" vaporized=""/>
    <tripinfo id="VEH_82" depart="119.00" departLane="183049957#0_1" departPos="5.10" departSpeed="0.00" departDelay="1.00" arrival="136.00" arrivalLane="331752492#2_1" arrivalPos="66.46" arrivalSpeed="13.34" duration="17.00" routeLength="112.21" waitingTime="0.00" waitingCount="0" stopTime="0.00" timeLoss="7.70" rerouteNo="0" devices="tripinfo_VEH_82" vType="sumo_car" speedFactor="1.03" vaporized=""/>
    <tripinfo id="VEH_88" depart="124.00" departLane="183049957#0_1" departPos="5.10" departSpeed="0.00" departDelay="0.00" arrival="140.00" arrivalLane="331752492#2_1" arrivalPos="66.46" arrivalSpeed="13.77" duration="16.00" routeLength="112.21" waitingTime="0.00" waitingCount="0" stopTime="0.00" timeLoss="6.67" rerouteNo="0" devices="tripinfo_VEH_88" vType="sumo_car" speedFactor="1.00" vaporized=""/>
    <tripinfo id="VEH_98" depart="135.00" departLane="183049957#0_1" departPos="5.10" departSpeed="0.00" departDelay="0.00" arrival="151.00" arrivalLane="331752492#2_1" arrivalPos="66.46" arrivalSpeed="13.60" duration="16.00" routeLength="112.21" waitingTime="0.00" waitingCount="0" stopTime="0.00" timeLoss="6.99" rerouteNo="0" devices="tripinfo_VEH_98" vType="sumo_car" speedFactor="1.01" vaporized=""/>
    <tripinfo id="VEH_101" depart="139.00" departLane="183049957#0_1" departPos="5.10" departSpeed="0.00" departDelay="2.00" arrival="154.00" arrivalLane="331752492#2_1" arrivalPos="66.46" arrivalSpeed="13.84" duration="15.00" routeLength="112.21" waitingTime="0.00" waitingCount="0" stopTime="0.00" timeLoss="6.47" rerouteNo="0" devices="tripinfo_VEH_101" vType="sumo_car" speedFactor="1.10" vaporized=""/>
    <tripinfo id="VEH_24" depart="44.00" departLane="23320502_1" departPos="5.10" departSpeed="0.00" departDelay="0.00" arrival="164.00" arrivalLane="25973410#1_1" arrivalPos="32.08" arrivalSpeed="7.52" duration="120.00" routeLength="524.68" waitingTime="46.00" waitingCount="1" stopTime="0.00" timeLoss="61.87" rerouteNo="0" devices="tripinfo_VEH_24" vType="sumo_car" speedFactor="0.97" vaporized=""/>
    <tripinfo id="VEH_112" depart="150.00" departLane="183049957#0_1" departPos="5.10" departSpeed="0.00" departDelay="0.00" arrival="167.00" arrivalLane="331752492#2_1" arrivalPos="66.46" arrivalSpeed="12.53" duration="17.00" routeLength="112.21" waitingTime="0.00" waitingCount="0" stopTime="0.00" timeLoss="7.68" rerouteNo="0" devices="tripinfo_VEH_112" vType="sumo_car" speedFactor="0.93" vaporized=""/>
    <tripinfo id="VEH_130" depart="171.00" departLane="183049957#0_1" departPos="5.10" departSpeed="0.00" departDelay="0.00" arrival="187.00" arrivalLane="331752492#2_1" arrivalPos="66.46" arrivalSpeed="13.83" duration="16.00" routeLength="112.21" waitingTime="0.00" waitingCount="0" stopTime="0.00" timeLoss="6.70" rerouteNo="0" devices="tripinfo_VEH_130" vType="sumo_car" speedFactor="1.12" vaporized=""/>
    <tripinfo id="VEH_14" depart="23.00" departLane="921020465#1_1" departPos="5.10" departSpeed="0.00" departDelay="0.00" arrival="189.00" arrivalLane="E4_1" arrivalPos="50.96" arrivalSpeed="11.75" duration="166.00" routeLength="425.49" waitingTime="113.00" waitingCount="1" stopTime="0.00" timeLoss="128.76" rerouteNo="0" devices="tripinfo_VEH_14" vType="sumo_car" speedFactor="1.05" vaporized=""/>
    <tripinfo id="VEH_28" depart="50.00" departLane="1162834479#1_1" departPos="0.20" departSpeed="0.00" departDelay="0.00" arrival="189.00" arrivalLane="183419043#1_1" arrivalPos="11.49" arrivalSpeed="10.03" duration="139.00" routeLength="931.93" waitingTime="5.00" waitingCount="1" stopTime="0.00" timeLoss="26.97" rerouteNo="0" devices="tripinfo_VEH_28" vType="sumo_car" speedFactor="0.92" vaporized=""/>
    <tripinfo id="VEH_2" depart="1.00" departLane="-E4_1" departPos="5.10" departSpeed="0.00" departDelay="0.00" arrival="190.00" arrivalLane="-1162834479#1_1" arrivalPos="0.20" arrivalSpeed="9.16" duration="189.00" routeLength="746.01" waitingTime="82.00" waitingCount="3" stopTime="0.00" timeLoss="109.90" rerouteNo="0" devices="tripinfo_VEH_2" vType="sumo_car" speedFactor="1.06" vaporized=""/>
    <tripinfo id="VEH_18" depart="28.00" departLane="921020465#1_1" departPos="5.10" departSpeed="0.00" departDelay="0.00" arrival="192.00" arrivalLane="E4_1" arrivalPos="50.96" arrivalSpeed="11.61" duration="164.00" routeLength="425.49" waitingTime="101.00" waitingCount="2" stopTime="0.00" timeLoss="119.92" rerouteNo="0" devices="tripinfo_VEH_18" vType="sumo_car" speedFactor="0.88" vaporized=""/>
    <tripinfo id="VEH_32" depart="56.00" departLane="921020465#1_1" departPos="5.10" departSpeed="0.00" departDelay="0.00" arrival="193.00" arrivalLane="E4_1" arrivalPos="50.96" arrivalSpeed="13.19" duration="137.00" routeLength="425.49" waitingTime="73.00" waitingCount="3" stopTime="0.00" timeLoss="101.67" rerouteNo="0" devices="tripinfo_VEH_32" vType="sumo_car" speedFactor="1.18" vaporized=""/>
    <tripinfo id="VEH_103" depart="139.00" departLane="-1169441386_1" departPos="6.60" departSpeed="0.00" departDelay="0.00" arrival="194.00" arrivalLane="694116204#2_2" arrivalPos="45.20" arrivalSpeed="11.05" duration="55.00" routeLength="173.99" waitingTime="25.00" waitingCount="1" stopTime="0.00" timeLoss="38.53" rerouteNo="0" devices="tripinfo_VEH_103" vType="sumo_transporter" speedFactor="0.98" vaporized=""/>
    <tripinfo id="VEH_104" depart="142.00" departLane="-1169441386_1" departPos="5.10" departSpeed="0.00" departDelay="1.00" arrival="196.00" arrivalLane="694116204#2_2" arrivalPos="45.20" arrivalSpeed="12.67" duration="54.00" routeLength="175.49" waitingTime="23.00" waitingCount="1" stopTime="0.00" timeLoss="40.08" rerouteNo="0" devices="tripinfo_VEH_104" vType="sumo_car" speedFactor="0.97" vaporized=""/>
    <tripinfo id="VEH_43" depart="84.00" departLane="921020465#1_1" departPos="6.60" departSpeed="0.00" departDelay="13.00" arrival="197.00" arrivalLane="E4_1" arrivalPos="50.96" arrivalSpeed="10.62" duration="113.00" routeLength="423.99" waitingTime="39.00" waitingCount="3" stopTime="0.00" timeLoss="69.05" rerouteNo="0" devices="tripinfo_VEH_43" vType="sumo_transporter" speedFactor="0.98" vaporized=""/>
    <tripinfo id="VEH_107" depart="149.00" departLane="-1169441386_1" departPos="5.10" departSpeed="0.00" departDelay="5.00" arrival="197.00" arrivalLane="694116204#2_2" arrivalPos="45.20" arrivalSpeed="12.46" duration="48.00" routeLength="175.49" waitingTime="19.00" waitingCount="1" stopTime="0.00" timeLoss="35.15" rerouteNo="0" devices="tripinfo_VEH_107" vType="sumo_car" speedFactor="1.07" vaporized=""/>
    <tripinfo id="VEH_136" depart="182.00" departLane="183049957#0_1" departPos="5.10" departSpeed="0.00" departDelay="0.00" arrival="197.00" arrivalLane="331752492#2_1" arrivalPos="66.46" arrivalSpeed="13.54" duration="15.00" routeLength="112.21" waitingTime="0.00" waitingCount="0" stopTime="0.00" timeLoss="6.27" rerouteNo="0" devices="tripinfo_VEH_136" vType="sumo_car" speedFactor="1.23" vaporized=""/>
    <tripinfo id="VEH_71" depart="136.00" departLane="921020465#1_1" departPos="5.10" departSpeed="0.00" departDelay="27.00" arrival="198.00" arrivalLane="E4_1" arrivalPos="50.96" arrivalSpeed="11.37" duration="62.00" routeLength="425.49" waitingTime="0.00" waitingCount="0" stopTime="0.00" timeLoss="24.26" rerouteNo="0" devices="tripinfo_VEH_71" vType="sumo_car" speedFactor="1.02" vaporized=""/>
    <tripinfo id="VEH_117" depart="174.00" departLane="921020465#1_1" departPos="6.60" departSpeed="0.00" departDelay="16.00" arrival="198.00" arrivalLane="183419043#1_1" arrivalPos="11.49" arrivalSpeed="10.65" duration="24.00" routeLength="170.74" waitingTime="0.00" waitingCount="0" stopTime="0.00" timeLoss="8.05" rerouteNo="0" devices="tripinfo_VEH_117" vType="sumo_transporter" speedFactor="0.96" vaporized=""/>
    <tripinfo id="VEH_118" depart="178.00" departLane="921020465#1_1" departPos="5.10" departSpeed="0.00" departDelay="18.00" arrival="201.00" arrivalLane="183419043#1_1" arrivalPos="11.49" arrivalSpeed="12.42" duration="23.00" routeLength="172.24" waitingTime="0.00" waitingCount="0" stopTime="0.00" timeLoss="9.80" rerouteNo="0" devices="tripinfo_VEH_118" vType="sumo_car" speedFactor="1.18" vaporized=""/>
    <tripinfo id="VEH_138" depart="187.00" departLane="183049957#0_1" departPos="14.45" departSpeed="0.00" departDelay="3.00" arrival="207.00" arrivalLane="331752492#2_1" arrivalPos="66.46" arrivalSpeed="9.73" duration="20.00" routeLength="102.86" waitingTime="0.00" waitingCount="0" stopTime="0.00" timeLoss="9.02" rerouteNo="0" devices="tripinfo_VEH_138" vType="sumo_truck" speedFactor="1.06" vaporized=""/>
    <tripinfo id="VEH_105" depart="145.00" departLane="-1169441386_1" departPos="5.10" departSpeed="0.00" departDelay="3.00" arrival="208.00" arrivalLane="183419043#1_1" arrivalPos="11.49" arrivalSpeed="10.81" duration="63.00" routeLength="129.14" waitingTime="40.00" waitingCount="1" stopTime="0.00" timeLoss="53.16" rerouteNo="0" devices="tripinfo_VEH_105" vType="sumo_car" speedFactor="0.95" vaporized=""/>
    <tripinfo id="VEH_140" depart="193.00" departLane="183049957#0_1" departPos="5.10" departSpeed="0.00" departDelay="4.00" arrival="210.00" arrivalLane="331752492#2_1" arrivalPos="66.46" arrivalSpeed="13.53" duration="17.00" routeLength="112.21" waitingTime="0.00" waitingCount="0" stopTime="0.00" timeLoss="7.51" rerouteNo="0" devices="tripinfo_VEH_140" vType="sumo_car" speedFactor="1.00" vaporized=""/>
    <tripinfo id="VEH_143" depart="192.00" departLane="-1169441386_1" departPos="5.10" departSpeed="0.00" departDelay="0.00" arrival="211.00" arrivalLane="694116204#2_2" arrivalPos="45.20" arrivalSpeed="13.33" duration="19.00" routeLength="175.49" waitingTime="0.00" waitingCount="0" stopTime="0.00" timeLoss="5.54" rerouteNo="0" devices="tripinfo_VEH_143" vType="sumo_car" speedFactor="1.16" vaporized=""/>
    <tripinfo id="VEH_120" depart="185.00" departLane="921020465#1_1" departPos="6.60" departSpeed="0.00" departDelay="22.00" arrival="212.00" arrivalLane="183419043#1_1" arrivalPos="11.49" arrivalSpeed="10.81" duration="27.00" routeLength="170.74" waitingTime="2.00" waitingCount="1" stopTime="0.00" timeLoss="10.70" rerouteNo="0" devices="tripinfo_VEH_120" vType="sumo_transporter" speedFactor="1.00" vaporized=""/>
    <tripinfo id="VEH_142" depart="197.00" departLane="183049957#0_1" departPos="5.10" departSpeed="0.00" departDelay="6.00" arrival="212.00" arrivalLane="331752492#2_1" arrivalPos="66.46" arrivalSpeed="13.77" duration="15.00" routeLength="112.21" waitingTime="0.00" waitingCount="0" stopTime="0.00" timeLoss="6.56" rerouteNo="0" devices="tripinfo_VEH_142" vType="sumo_car" speedFactor="1.11" vaporized=""/>
    <tripinfo id="VEH_123" depart="191.00" departLane="921020465#1_1" departPos="5.10" departSpeed="0.00" departDelay="26.00" arrival="215.00" arrivalLane="183419043#1_1" arrivalPos="11.49" arrivalSpeed="10.94" duration="24.00" routeLength="172.24" waitingTime="0.00" waitingCount="0" stopTime="0.00" timeLoss="10.88" rerouteNo="0" devices="tripinfo_VEH_123" vType="sumo_car" speedFactor="1.10" vaporized=""/>
    <tripinfo id="VEH_125" depart="197.00" departLane="921020465#1_1" departPos="2.30" departSpeed="0.00" departDelay="31.00" arrival="217.00" arrivalLane="183419043#1_1" arrivalPos="11.49" arrivalSpeed="13.26" duration="20.00" routeLength="175.04" waitingTime="0.00" waitingCount="0" stopTime="0.00" timeLoss="6.18" rerouteNo="0" devices="tripinfo_VEH_125" vType="sumo_motorcycle" speedFactor="1.02" vaporized=""/>
    <tripinfo id="VEH_149" depart="201.00" departLane="183049957#0_1" departPos="6.60" departSpeed="0.00" departDelay="0.00" arrival="220.00" arrivalLane="331752492#2_1" arrivalPos="66.46" arrivalSpeed="10.83" duration="19.00" routeLength="110.71" waitingTime="0.00" waitingCount="0" stopTime="0.00" timeLoss="8.20" rerouteNo="0" devices="tripinfo_VEH_149" vType="sumo_transporter" speedFactor="1.00" vaporized=""/>
    <tripinfo id="VEH_128" depart="205.00" departLane="921020465#1_1" departPos="5.10" departSpeed="0.00" departDelay="35.00" arrival="227.00" arrivalLane="183419043#1_1" arrivalPos="11.49" arrivalSpeed="11.15" duration="22.00" routeLength="172.24" waitingTime="0.00" waitingCount="0" stopTime="0.00" timeLoss="8.86" rerouteNo="0" devices="tripinfo_VEH_128" vType="sumo_car" speedFactor="1.03" vaporized=""/>
    <tripinfo id="VEH_19" depart="31.00" departLane="921020465#1_1" departPos="5.10" departSpeed="0.00" departDelay="2.00" arrival="228.00" arrivalLane="-1162834479#1_1" arrivalPos="0.20" arrivalSpeed="10.96" duration="197.00" routeLength="1054.84" waitingTime="60.00" waitingCount="1" stopTime="0.00" timeLoss="78.69" rerouteNo="0" devices="tripinfo_VEH_19" vType="sumo_car" speedFactor="0.94" vaporized=""/>
    <tripinfo id="VEH_110" depart="155.00" departLane="-1169441386_1" departPos="5.10" departSpeed="0.00" departDelay="8.00" arrival="232.00" arrivalLane="183419043#1_1" arrivalPos="11.49" arrivalSpeed="10.97" duration="77.00" routeLength="129.14" waitingTime="47.00" waitingCount="2" stopTime="0.00" timeLoss="67.44" rerouteNo="0" devices="tripinfo_VEH_110" vType="sumo_car" speedFactor="1.06" vaporized=""/>
    <tripinfo id="VEH_144" depart="194.00" departLane="-1169441386_1" departPos="5.10" departSpeed="0.00" departDelay="2.00" arrival="237.00" arrivalLane="183419043#1_1" arrivalPos="11.49" arrivalSpeed="12.33" duration="43.00" routeLength="129.14" waitingTime="12.00" waitingCount="1" stopTime="0.00" timeLoss="32.32" rerouteNo="0" devices="tripinfo_VEH_144" vType="sumo_car" speedFactor="0.94" vaporized=""/>
    <tripinfo id="VEH_164" depart="222.00" departLane="183049957#0_1" departPos="5.10" departSpeed="0.00" departDelay="0.00" arrival="238.00" arrivalLane="331752492#2_1" arrivalPos="66.46" arrivalSpeed="13.74" duration="16.00" routeLength="112.21" waitingTime="0.00" waitingCount="0" stopTime="0.00" timeLoss="6.74" rerouteNo="0" devices="tripinfo_VEH_164" vType="sumo_car" speedFactor="0.99" vaporized=""/>
    <tripinfo id="VEH_170" depart="226.00" departLane="183049957#0_1" departPos="5.10" departSpeed="0.00" departDelay="1.00" arrival="242.00" arrivalLane="331752492#2_1" arrivalPos="66.46" arrivalSpeed="13.46" duration="16.00" routeLength="112.21" waitingTime="0.00" waitingCount="0" stopTime="0.00" timeLoss="7.00" rerouteNo="0" devices="tripinfo_VEH_170" vType="sumo_car" speedFactor="0.98" vaporized=""/>
    <tripinfo id="VEH_171" depart="230.00" departLane="183049957#0_1" departPos="5.10" departSpeed="0.00" departDelay="4.00" arrival="246.00" arrivalLane="331752492#2_1" arrivalPos="66.46" arrivalSpeed="12.64" duration="16.00" routeLength="112.21" waitingTime="0.00" waitingCount="0" stopTime="0.00" timeLoss="6.50" rerouteNo="0" devices="tripinfo_VEH_171" vType="sumo_car" speedFactor="0.94" vaporized=""/>
    <tripinfo id="VEH_16" depart="27.00" departLane="758088375#0_1" departPos="5.10" departSpeed="0.00" departDelay="0.00" arrival="249.00" arrivalLane="25973410#1_1" arrivalPos="32.08" arrivalSpeed="7.77" duration="222.00" routeLength="75.29" waitingTime="204.00" waitingCount="1" stopTime="0.00" timeLoss="212.01" rerouteNo="0" devices="tripinfo_VEH_16" vType="sumo_car" speedFactor="0.99" vaporized=""/>
    <tripinfo id="VEH_10" depart="19.00" departLane="-25973410#1_1" departPos="5.10" departSpeed="0.00" departDelay="1.00" arrival="250.00" arrivalLane="-758088375#0_1" arrivalPos="24.98" arrivalSpeed="7.25" duration="231.00" routeLength="75.26" waitingTime="213.00" waitingCount="1" stopTime="0.00" timeLoss="221.16" rerouteNo="0" devices="tripinfo_VEH_10" vType="sumo_car" speedFactor="0.94" vaporized=""/>
    <tripinfo id="VEH_55" depart="86.00" departLane="758088375#0_1" departPos="5.10" departSpeed="0.00" departDelay="0.00" arrival="251.00" arrivalLane="25973410#1_1" arrivalPos="32.08" arrivalSpeed="8.48" duration="165.00" routeLength="75.29" waitingTime="148.00" waitingCount="1" stopTime="0.00" timeLoss="156.68" rerouteNo="0" devices="tripinfo_VEH_55" vType="sumo_car" speedFactor="1.10" vaporized=""/>
    <tripinfo id="VEH_177" depart="234.00" departLane="183049957#0_1" departPos="5.10" departSpeed="0.00" departDelay="5.00" arrival="251.00" arrivalLane="331752492#2_1" arrivalPos="66.46" arrivalSpeed="12.49" duration="17.00" routeLength="112.21" waitingTime="0.00" waitingCount="0" stopTime="0.00" timeLoss="7.48" rerouteNo="0" devices="tripinfo_VEH_177" vType="sumo_car" speedFactor="0.92" vaporized=""/>
    <tripinfo id="VEH_106" depart="144.00" departLane="758088375#0_1" departPos="5.10" departSpeed="0.00" departDelay="0.00" arrival="254.00" arrivalLane="25973410#1_1" arrivalPos="32.08" arrivalSpeed="7.41" duration="110.00" routeLength="75.29" waitingTime="93.00" waitingCount="1" stopTime="0.00" timeLoss="99.74" rerouteNo="0" devices="tripinfo_VEH_106" vType="sumo_car" speedFactor="0.89" vaporized=""/>
    <tripinfo id="VEH_12" depart="22.00" departLane="1162834479#1_1" departPos="0.20" departSpeed="0.00" departDelay="0.00" arrival="258.00" arrivalLane="694116204#2_1" arrivalPos="45.20" arrivalSpeed="9.68" duration="236.00" routeLength="992.43" waitingTime="92.00" waitingCount="2" stopTime="0.00" timeLoss="126.03" rerouteNo="0" devices="tripinfo_VEH_12" vType="sumo_truck" speedFactor="1.05" vaporized=""/>
    <tripinfo id="VEH_31" depart="53.00" departLane="1162834479#1_1" departPos="0.20" departSpeed="0.00" departDelay="0.00" arrival="261.00" arrivalLane="694116204#2_1" arrivalPos="45.20" arrivalSpeed="12.02" duration="208.00" routeLength="992.43" waitingTime="59.00" waitingCount="2" stopTime="0.00" timeLoss="93.44" rerouteNo="0" devices="tripinfo_VEH_31" vType="sumo_car" speedFactor="0.93" vaporized=""/>
    <tripinfo id="VEH_6" depart="15.00" departLane="-25973410#1_1" departPos="5.10" departSpeed="0.00" departDelay="0.00" arrival="263.00" arrivalLane="694116204#2_1" arrivalPos="45.20" arrivalSpeed="12.99" duration="248.00" routeLength="221.68" waitingTime="214.00" waitingCount="1" stopTime="0.00" timeLoss="226.31" rerouteNo="0" devices="tripinfo_VEH_6" vType="sumo_car" speedFactor="1.03" vaporized=""/>
    <tripinfo id="VEH_23" depart="43.00" departLane="-25973410#1_1" departPos="5.10" departSpeed="0.00" departDelay="0.00" arrival="266.00" arrivalLane="694116204#2_1" arrivalPos="45.20" arrivalSpeed="13.42" duration="223.00" routeLength="221.68" waitingTime="192.00" waitingCount="1" stopTime="0.00" timeLoss="201.23" rerouteNo="0" devices="tripinfo_VEH_23" vType="sumo_car" speedFactor="1.01" vaporized=""/>
    <tripinfo id="VEH_35" depart="60.00" departLane="-25973410#1_1" departPos="5.10" departSpeed="0.00" departDelay="0.00" arrival="268.00" arrivalLane="694116204#2_1" arrivalPos="45.20" arrivalSpeed="13.14" duration="208.00" routeLength="221.68" waitingTime="179.00" waitingCount="1" stopTime="0.00" timeLoss="187.74" rerouteNo="0" devices="tripinfo_VEH_35" vType="sumo_car" speedFactor="1.17" vaporized=""/>
    <tripinfo id="VEH_62" depart="99.00" departLane="E13_1" departPos="5.10" departSpeed="0.00" departDelay="0.00" arrival="277.00" arrivalLane="E4_1" arrivalPos="50.96" arrivalSpeed="12.81" duration="178.00" routeLength="789.50" waitingTime="58.00" waitingCount="2" stopTime="0.00" timeLoss="98.14" rerouteNo="0" devices="tripinfo_VEH_62" vType="sumo_car" speedFactor="1.08" vaporized=""/>
    <tripinfo id="VEH_200" depart="262.00" departLane="183049957#0_1" departPos="5.10" departSpeed="0.00" departDelay="0.00" arrival="278.00" arrivalLane="331752492#2_1" arrivalPos="66.46" arrivalSpeed="13.78" duration="16.00" routeLength="112.21" waitingTime="0.00" waitingCount="0" stopTime="0.00" timeLoss="6.90" rerouteNo="0" devices="tripinfo_VEH_200" vType="sumo_car" speedFactor="1.06" vaporized=""/>