<?xml version="1.0" encoding="UTF-8"?>

<!-- generated on 2025-06-28 15:04:41 by Eclipse SUMO sumo Version 1.19.0
<configuration xmlns:xsi="http://www.w3.org/2001/XMLSchema-instance" xsi:noNamespaceSchemaLocation="http://sumo.dlr.de/xsd/sumoConfiguration.xsd">

    <input>
        <net-file value="../model/Network.net.xml"/>
        <route-files value="../model/CarRoutes.rou.xml"/>
        <additional-files value="../model/BusStops.add.xml"/>
    </input>

    <output>
        <summary-output value="../model/logs/Log_summary.xml"/>
        <summary-output.period value="300"/>
        <tripinfo-output value="../model/logs/TripInfos.xml"/>
    </output>

    <time>
        <begin value="0"/>
        <end value="86400"/>
        <step-length value="1"/>
    </time>

    <processing>
        <ignore-junction-blocker value="0.1"/>
        <time-to-teleport value="-1"/>
        <waiting-time-memory value="6000"/>
    </processing>

    <report>
        <verbose value="true"/>
        <no-step-log value="true"/>
    </report>

    <traci_server>
        <remote-port value="63453"/>
    </traci_server>

    <gui_only>
        <quit-on-end value="true"/>
        <start value="true"/>
    </gui_only>

</configuration>
-->

<tripinfos xmlns:xsi="http://www.w3.org/2001/XMLSchema-instance" xsi:noNamespaceSchemaLocation="http://sumo.dlr.de/xsd/tripinfo_file.xsd">
    <tripinfo id="VEH_5" depart="12.00" departLane="183049957#0_1" departPos="5.10" departSpeed="0.00" departDelay="0.00" arrival="28.00" arrivalLane="331752492#2_1" arrivalPos="66.46" arrivalSpeed="13.19" duration="16.00" routeLength="112.21" waitingTime="0.00" waitingCount="0" stopTime="0.00" timeLoss="6.88" rerouteNo="0" devices="tripinfo_VEH_5" vType="sumo_car" speedFactor="1.08" vaporized=""/>
    <tripinfo id="VEH_7" depart="16.00" departLane="183049957#0_1" departPos="5.10" departSpeed="0.00" departDelay="1.00" arrival="33.00" arrivalLane="331752492#2_1" arrivalPos="66.46" arrivalSpeed="11.42" duration="17.00" routeLength="112.21" waitingTime="0.00" waitingCount="0" stopTime="0.00" timeLoss="6.08" rerouteNo="0" devices="tripinfo_VEH_7" vType="sumo_car" speedFactor="0.83" vaporized=""/>
    <tripinfo id="VEH_9" depart="20.00" departLane="183049957#0_1" departPos="5.10" departSpeed="0.00" departDelay="3.00" arrival="37.00" arrivalLane="331752492#2_1" arrivalPos="66.46" arrivalSpeed="11.92" duration="17.00" routeLength="112.21" waitingTime="0.00" waitingCount="0" stopTime="0.00" timeLoss="6.73" rerouteNo="0" devices="tripinfo_VEH_9" vType="sumo_car" speedFactor="0.89" vaporized=""/>
    <tripinfo id="VEH_11" depart="24.00" departLane="183049957#0_1" departPos="5.10" departSpeed="0.00" departDelay="3.00" arrival="40.00" arrivalLane="331752492#2_1" arrivalPos="66.46" arrivalSpeed="11.48" duration="16.00" routeLength="112.21" waitingTime="0.00" waitingCount="0" stopTime="0.00" timeLoss="6.08" rerouteNo="0" devices="tripinfo_VEH_11" vType="sumo_car" speedFactor="0.86" vaporized=""/>
    <tripinfo id="VEH_17" depart="28.00" departLane="183049957#0_1" departPos="5.10" departSpeed="0.00" departDelay="1.00" arrival="44.00" arrivalLane="331752492#2_1" arrivalPos="66.46" arrivalSpeed="12.38" duration="16.00" routeLength="112.21" waitingTime="0.00" waitingCount="0" stopTime="0.00" timeLoss="6.64" rerouteNo="0" devices="tripinfo_VEH_17" vType="sumo_car" speedFactor="0.93" vaporized=""/>
    <tripinfo id="VEH_20" depart="33.00" departLane="183049957#0_1" departPos="5.10" departSpeed="0.00" departDelay="0.00" arrival="49.00" arrivalLane="331752492#2_1" arrivalPos="66.46" arrivalSpeed="12.65" duration="16.00" routeLength="112.21" waitingTime="0.00" waitingCount="0" stopTime="0.00" timeLoss="6.52" rerouteNo="0" devices="tripinfo_VEH_20" vType="sumo_car" speedFactor="0.94" vaporized=""/>
    <tripinfo id="VEH_22" depart="42.00" departLane="183049957#0_1" departPos="5.10" departSpeed="0.00" departDelay="0.00" arrival="59.00" arrivalLane="331752492#2_1" arrivalPos="66.46" arrivalSpeed="13.17" duration="17.00" routeLength="112.21" waitingTime="0.00" waitingCount="0" stopTime="0.00" timeLoss="8.03" rerouteNo="0" devices="tripinfo_VEH_22" vType="sumo_car" speedFactor="1.02" vaporized=""/>
    <tripinfo id="VEH_13" depart="23.00" departLane="-E4_1" departPos="5.10" departSpeed="0.00" departDelay="0.00" arrival="68.00" arrivalLane="-E2_1" arrivalPos="20.13" arrivalSpeed="9.27" duration="45.00" routeLength="88.22" waitingTime="27.00" waitingCount="1" stopTime="0.00" timeLoss="38.57" rerouteNo="0" devices="tripinfo_VEH_13" vType="sumo_car" speedFactor="1.03" vaporized=""/>
    <tripinfo id="VEH_16" depart="27.00" departLane="758088375#0_1" departPos="5.10" departSpeed="0.00" departDelay="0.00" arrival="68.00" arrivalLane="25973410#1_1" arrivalPos="32.08" arrivalSpeed="8.22" duration="41.00" routeLength="75.29" waitingTime="24.00" waitingCount="1" stopTime="0.00" timeLoss="31.70" rerouteNo="0" devices="tripinfo_VEH_16" vType="sumo_car" speedFactor="0.99" vaporized=""/>
    <tripinfo id="VEH_10" depart="19.00" departLane="-25973410#1_1" departPos="5.10" departSpeed="0.00" departDelay="1.00" arrival="70.00" arrivalLane="-758088375#0_1" arrivalPos="24.98" arrivalSpeed="7.45" duration="51.00" routeLength="75.26" waitingTime="33.00" waitingCount="1" stopTime="0.00" timeLoss="41.13" rerouteNo="0" devices="tripinfo_VEH_10" vType="sumo_car" speedFactor="0.94" vaporized=""/>
    <tripinfo id="VEH_26" depart="47.00" departLane="-E4_1" departPos="5.10" departSpeed="0.00" departDelay="0.00" arrival="70.00" arrivalLane="-E2_1" arrivalPos="20.13" arrivalSpeed="10.37" duration="23.00" routeLength="88.22" waitingTime="4.00" waitingCount="1" stopTime="0.00" timeLoss="15.10" rerouteNo="0" devices="tripinfo_VEH_26" vType="sumo_car" speedFactor="0.83" vaporized=""/>
    <tripinfo id="VEH_40" depart="69.00" departLane="183049957#0_1" departPos="5.10" departSpeed="0.00" departDelay="0.00" arrival="84.00" arrivalLane="331752492#2_1" arrivalPos="66.46" arrivalSpeed="13.48" duration="15.00" routeLength="112.21" waitingTime="0.00" waitingCount="0" stopTime="0.00" timeLoss="6.38" rerouteNo="0" devices="tripinfo_VEH_40" vType="sumo_car" speedFactor="1.10" vaporized=""/>
    <tripinfo id="VEH_46" depart="74.00" departLane="-1169441386_1" departPos="5.10" departSpeed="0.00" departDelay="0.00" arrival="91.00" arrivalLane="183419043#1_1" arrivalPos="11.49" arrivalSpeed="13.58" duration="17.00" routeLength="129.14" waitingTime="0.00" waitingCount="0" stopTime="0.00" timeLoss="6.94" rerouteNo="0" devices="tripinfo_VEH_46" vType="sumo_car" speedFactor="1.04" vaporized=""/>
    <tripinfo id="VEH_55" depart="86.00" departLane="758088375#0_1" departPos="2.30" departSpeed="0.00" departDelay="0.00" arrival="98.00" arrivalLane="25973410#1_1" arrivalPos="32.08" arrivalSpeed="8.71" duration="12.00" routeLength="78.09" waitingTime="0.00" waitingCount="0" stopTime="0.00" timeLoss="2.69" rerouteNo="0" devices="tripinfo_VEH_55" vType="sumo_motorcycle" speedFactor="1.10" vaporized=""/>
    <tripinfo id="VEH_53" depart="85.00" departLane="183049957#0_1" departPos="2.30" departSpeed="0.00" departDelay="0.00" arrival="99.00" arrivalLane="331752492#2_1" arrivalPos="66.46" arrivalSpeed="16.23" duration="14.00" routeLength="115.01" waitingTime="0.00" waitingCount="0" stopTime="0.00" timeLoss="5.74" rerouteNo="0" devices="tripinfo_VEH_53" vType="sumo_motorcycle" speedFactor="1.17" vaporized=""/>
    <tripinfo id="VEH_54" depart="85.00" departLane="-1169441386_1" departPos="5.10" departSpeed="0.00" departDelay="0.00" arrival="104.00" arrivalLane="694116204#2_2" arrivalPos="45.20" arrivalSpeed="13.35" duration="19.00" routeLength="175.49" waitingTime="0.00" waitingCount="0" stopTime="0.00" timeLoss="6.19" rerouteNo="0" devices="tripinfo_VEH_54" vType="sumo_car" speedFactor="1.02" vaporized=""/>
    <tripinfo id="VEH_39" depart="75.00" departLane="921020465#1_1" departPos="15.10" departSpeed="0.00" departDelay="9.00" arrival="111.00" arrivalLane="183419043#1_1" arrivalPos="11.49" arrivalSpeed="8.19" duration="36.00" routeLength="162.24" waitingTime="0.00" waitingCount="0" stopTime="0.00" timeLoss="19.04" rerouteNo="0" devices="tripinfo_VEH_39" vType="sumo_truck" speedFactor="1.09" vaporized=""/>
    <tripinfo id="VEH_42" depart="84.00" departLane="921020465#1_1" departPos="5.10" departSpeed="0.00" departDelay="15.00" arrival="113.00" arrivalLane="183419043#1_1" arrivalPos="11.49" arrivalSpeed="10.86" duration="29.00" routeLength="172.24" waitingTime="1.00" waitingCount="1" stopTime="0.00" timeLoss="15.73" rerouteNo="0" devices="tripinfo_VEH_42" vType="sumo_car" speedFactor="1.03" vaporized=""/>
    <tripinfo id="VEH_45" depart="90.00" departLane="921020465#1_1" departPos="5.10" departSpeed="0.00" departDelay="17.00" arrival="115.00" arrivalLane="183419043#1_1" arrivalPos="11.49" arrivalSpeed="11.39" duration="25.00" routeLength="172.24" waitingTime="0.00" waitingCount="0" stopTime="0.00" timeLoss="11.77" rerouteNo="0" devices="tripinfo_VEH_45" vType="sumo_car" speedFactor="1.04" vaporized=""/>
    <tripinfo id="VEH_44" depart="88.00" departLane="921020465#1_1" departPos="2.30" departSpeed="0.00" departDelay="17.00" arrival="118.00" arrivalLane="183419043#1_1" arrivalPos="11.49" arrivalSpeed="13.30" duration="30.00" routeLength="175.04" waitingTime="2.00" waitingCount="2" stopTime="0.00" timeLoss="17.03" rerouteNo="0" devices="tripinfo_VEH_44" vType="sumo_motorcycle" speedFactor="1.09" vaporized=""/>
    <tripinfo id="VEH_49" depart="98.00" departLane="921020465#1_1" departPos="5.10" departSpeed="0.00" departDelay="20.00" arrival="122.00" arrivalLane="183419043#1_1" arrivalPos="11.49" arrivalSpeed="11.91" duration="24.00" routeLength="172.24" waitingTime="2.00" waitingCount="1" stopTime="0.00" timeLoss="8.95" rerouteNo="0" devices="tripinfo_VEH_49" vType="sumo_car" speedFactor="0.90" vaporized=""/>
    <tripinfo id="VEH_68" depart="107.00" departLane="183049957#0_1" departPos="5.10" departSpeed="0.00" departDelay="0.00" arrival="123.00" arrivalLane="331752492#2_1" arrivalPos="66.46" arrivalSpeed="12.08" duration="16.00" routeLength="112.21" waitingTime="0.00" waitingCount="0" stopTime="0.00" timeLoss="6.61" rerouteNo="0" devices="tripinfo_VEH_68" vType="sumo_car" speedFactor="0.91" vaporized=""/>
    <tripinfo id="VEH_75" depart="111.00" departLane="183049957#0_1" departPos="6.60" departSpeed="0.00" departDelay="0.00" arrival="129.00" arrivalLane="331752492#2_1" arrivalPos="66.46" arrivalSpeed="10.78" duration="18.00" routeLength="110.71" waitingTime="0.00" waitingCount="0" stopTime="0.00" timeLoss="6.89" rerouteNo="0" devices="tripinfo_VEH_75" vType="sumo_transporter" speedFactor="1.03" vaporized=""/>
    <tripinfo id="VEH_6" depart="15.00" departLane="-25973410#1_1" departPos="5.10" departSpeed="0.00" departDelay="0.00" arrival="131.00" arrivalLane="694116204#2_1" arrivalPos="45.20" arrivalSpeed="13.38" duration="116.00" routeLength="221.68" waitingTime="77.00" waitingCount="2" stopTime="0.00" timeLoss="94.88" rerouteNo="0" devices="tripinfo_VEH_6" vType="sumo_car" speedFactor="1.03" vaporized=""/>
    <tripinfo id="VEH_79" depart="115.00" departLane="183049957#0_1" departPos="5.10" departSpeed="0.00" departDelay="2.00" arrival="131.00" arrivalLane="331752492#2_1" arrivalPos="66.46" arrivalSpeed="13.46" duration="16.00" routeLength="112.21" waitingTime="0.00" waitingCount="0" stopTime="0.00" timeLoss="6.71" rerouteNo="0" devices="tripinfo_VEH_79" vType="sumo_car" speedFactor="0.98" vaporized=""/>
    <tripinfo id="VEH_23" depart="43.00" departLane="-25973410#1_1" departPos="5.10" departSpeed="0.00" departDelay="0.00" arrival="132.00" arrivalLane="694116204#2_2" arrivalPos="45.20" arrivalSpeed="13.60" duration="89.00" routeLength="221.68" waitingTime="48.00" waitingCount="2" stopTime="0.00" timeLoss="66.78" rerouteNo="0" devices="tripinfo_VEH_23" vType="sumo_car" speedFactor="1.01" vaporized=""/>
    <tripinfo id="VEH_35" depart="60.00" departLane="-25973410#1_1" departPos="2.30" departSpeed="0.00" departDelay="0.00" arrival="133.00" arrivalLane="694116204#2_1" arrivalPos="45.20" arrivalSpeed="15.59" duration="73.00" routeLength="224.48" waitingTime="38.00" waitingCount="1" stopTime="0.00" timeLoss="53.70" rerouteNo="0" devices="tripinfo_VEH_35" vType="sumo_motorcycle" speedFactor="1.17" vaporized=""/>
    <tripinfo id="VEH_82" depart="119.00" departLane="183049957#0_1" departPos="5.10" departSpeed="0.00" departDelay="1.00" arrival="134.00" arrivalLane="331752492#2_1" arrivalPos="66.46" arrivalSpeed="13.76" duration="15.00" routeLength="112.21" waitingTime="0.00" waitingCount="0" stopTime="0.00" timeLoss="6.52" rerouteNo="0" devices="tripinfo_VEH_82" vType="sumo_car" speedFactor="1.03" vaporized=""/>
    <tripinfo id="VEH_88" depart="124.00" departLane="183049957#0_1" departPos="2.30" departSpeed="0.00" departDelay="0.00" arrival="139.00" arrivalLane="331752492#2_1" arrivalPos="66.46" arrivalSpeed="13.18" duration="15.00" routeLength="115.01" waitingTime="0.00" waitingCount="0" stopTime="0.00" timeLoss="5.51" rerouteNo="0" devices="tripinfo_VEH_88" vType="sumo_motorcycle" speedFactor="1.00" vaporized=""/>
    <tripinfo id="VEH_98" depart="135.00" departLane="183049957#0_1" departPos="5.10" departSpeed="0.00" departDelay="0.00" arrival="150.00" arrivalLane="331752492#2_1" arrivalPos="66.46" arrivalSpeed="13.72" duration="15.00" routeLength="112.21" waitingTime="0.00" waitingCount="0" stopTime="0.00" timeLoss="5.74" rerouteNo="0" devices="tripinfo_VEH_98" vType="sumo_car" speedFactor="1.01" vaporized=""/>
    <tripinfo id="VEH_101" depart="138.00" departLane="183049957#0_1" departPos="5.10" departSpeed="0.00" departDelay="1.00" arrival="155.00" arrivalLane="331752492#2_1" arrivalPos="66.46" arrivalSpeed="13.82" duration="17.00" routeLength="112.21" waitingTime="0.00" waitingCount="0" stopTime="0.00" timeLoss="7.68" rerouteNo="0" devices="tripinfo_VEH_101" vType="sumo_car" speedFactor="1.10" vaporized=""/>
    <tripinfo id="VEH_24" depart="44.00" departLane="23320502_1" departPos="5.10" departSpeed="0.00" departDelay="0.00" arrival="164.00" arrivalLane="25973410#1_1" arrivalPos="32.08" arrivalSpeed="7.95" duration="120.00" routeLength="524.68" waitingTime="46.00" waitingCount="1" stopTime="0.00" timeLoss="61.79" rerouteNo="0" devices="tripinfo_VEH_24" vType="sumo_car" speedFactor="0.97" vaporized=""/>
    <tripinfo id="VEH_112" depart="150.00" departLane="183049957#0_1" departPos="5.10" departSpeed="0.00" departDelay="0.00" arrival="167.00" arrivalLane="331752492#2_1" arrivalPos="66.46" arrivalSpeed="12.69" duration="17.00" routeLength="112.21" waitingTime="0.00" waitingCount="0" stopTime="0.00" timeLoss="7.34" rerouteNo="0" devices="tripinfo_VEH_112" vType="sumo_car" speedFactor="0.93" vaporized=""/>
    <tripinfo id="VEH_12" depart="22.00" departLane="1162834479#1_1" departPos="0.20" departSpeed="0.00" departDelay="0.00" arrival="180.00" arrivalLane="694116204#2_1" arrivalPos="45.20" arrivalSpeed="13.85" duration="158.00" routeLength="992.43" waitingTime="38.00" waitingCount="1" stopTime="0.00" timeLoss="58.96" rerouteNo="0" devices="tripinfo_VEH_12" vType="sumo_car" speedFactor="1.09" vaporized=""/>
    <tripinfo id="VEH_28" depart="50.00" departLane="1162834479#1_1" departPos="0.20" departSpeed="0.00" departDelay="0.00" arrival="184.00" arrivalLane="183419043#1_1" arrivalPos="11.49" arrivalSpeed="10.21" duration="134.00" routeLength="931.93" waitingTime="3.00" waitingCount="1" stopTime="0.00" timeLoss="21.97" rerouteNo="0" devices="tripinfo_VEH_28" vType="sumo_car" speedFactor="0.92" vaporized=""/>
    <tripinfo id="VEH_130" depart="171.00" departLane="183049957#0_1" departPos="5.10" departSpeed="0.00" departDelay="0.00" arrival="187.00" arrivalLane="331752492#2_1" arrivalPos="66.46" arrivalSpeed="13.39" duration="16.00" routeLength="112.21" waitingTime="0.00" waitingCount="0" stopTime="0.00" timeLoss="6.96" rerouteNo="0" devices="tripinfo_VEH_130" vType="sumo_car" speedFactor="1.12" vaporized=""/>
    <tripinfo id="VEH_3" depart="5.00" departLane="-E4_1" departPos="5.10" departSpeed="0.00" departDelay="0.00" arrival="188.00" arrivalLane="-758088375#0_1" arrivalPos="24.98" arrivalSpeed="7.42" duration="183.00" routeLength="212.81" waitingTime="145.00" waitingCount="2" stopTime="0.00" timeLoss="160.20" rerouteNo="0" devices="tripinfo_VEH_3" vType="sumo_car" speedFactor="0.94" vaporized=""/>
    <tripinfo id="VEH_14" depart="23.00" departLane="921020465#1_1" departPos="5.10" departSpeed="0.00" departDelay="0.00" arrival="189.00" arrivalLane="E4_1" arrivalPos="50.96" arrivalSpeed="13.12" duration="166.00" routeLength="425.49" waitingTime="113.00" waitingCount="1" stopTime="0.00" timeLoss="128.53" rerouteNo="0" devices="tripinfo_VEH_14" vType="sumo_car" speedFactor="1.05" vaporized=""/>
    <tripinfo id="VEH_56" depart="87.00" departLane="758088375#0_1" departPos="5.10" departSpeed="0.00" departDelay="0.00" arrival="191.00" arrivalLane="E4_1" arrivalPos="50.96" arrivalSpeed="13.30" duration="104.00" routeLength="211.40" waitingTime="71.00" waitingCount="1" stopTime="0.00" timeLoss="83.84" rerouteNo="0" devices="tripinfo_VEH_56" vType="sumo_car" speedFactor="1.00" vaporized=""/>
    <tripinfo id="VEH_15" depart="24.00" departLane="-183419042#1_1" departPos="5.10" departSpeed="0.00" departDelay="0.00" arrival="193.00" arrivalLane="331752492#2_1" arrivalPos="66.46" arrivalSpeed="13.30" duration="169.00" routeLength="268.79" waitingTime="136.00" waitingCount="1" stopTime="0.00" timeLoss="148.97" rerouteNo="0" devices="tripinfo_VEH_15" vType="sumo_car" speedFactor="1.12" vaporized=""/>
    <tripinfo id="VEH_18" depart="28.00" departLane="921020465#1_1" departPos="6.60" departSpeed="0.00" departDelay="0.00" arrival="195.00" arrivalLane="E4_1" arrivalPos="50.96" arrivalSpeed="11.00" duration="167.00" routeLength="423.99" waitingTime="99.00" waitingCount="2" stopTime="0.00" timeLoss="122.57" rerouteNo="0" devices="tripinfo_VEH_18" vType="sumo_transporter" speedFactor="0.94" vaporized=""/>
    <tripinfo id="VEH_100" depart="137.00" departLane="-183419042#1_1" departPos="5.10" departSpeed="0.00" departDelay="0.00" arrival="195.00" arrivalLane="331752492#2_1" arrivalPos="66.46" arrivalSpeed="13.52" duration="58.00" routeLength="268.79" waitingTime="23.00" waitingCount="1" stopTime="0.00" timeLoss="37.79" rerouteNo="0" devices="tripinfo_VEH_100" vType="sumo_car" speedFactor="1.12" vaporized=""/>
    <tripinfo id="VEH_32" depart="56.00" departLane="921020465#1_1" departPos="5.10" departSpeed="0.00" departDelay="0.00" arrival="197.00" arrivalLane="E4_1" arrivalPos="50.96" arrivalSpeed="12.46" duration="141.00" routeLength="425.49" waitingTime="72.00" waitingCount="3" stopTime="0.00" timeLoss="105.30" rerouteNo="0" devices="tripinfo_VEH_32" vType="sumo_car" speedFactor="1.18" vaporized=""/>
    <tripinfo id="VEH_136" depart="182.00" departLane="183049957#0_1" departPos="5.10" departSpeed="0.00" departDelay="0.00" arrival="197.00" arrivalLane="331752492#2_1" arrivalPos="66.46" arrivalSpeed="13.73" duration="15.00" routeLength="112.21" waitingTime="0.00" waitingCount="0" stopTime="0.00" timeLoss="6.34" rerouteNo="0" devices="tripinfo_VEH_136" vType="sumo_car" speedFactor="1.23" vaporized=""/>
    <tripinfo id="VEH_43" depart="87.00" departLane="921020465#1_1" departPos="5.10" departSpeed="0.00" departDelay="16.00" arrival="199.00" arrivalLane="E4_1" arrivalPos="50.96" arrivalSpeed="13.06" duration="112.00" routeLength="425.49" waitingTime="43.00" waitingCount="3" stopTime="0.00" timeLoss="71.59" rerouteNo="0" devices="tripinfo_VEH_43" vType="sumo_car" speedFactor="0.96" vaporized=""/>
    <tripinfo id="VEH_117" depart="166.00" departLane="921020465#1_1" departPos="5.10" departSpeed="0.00" departDelay="8.00" arrival="199.00" arrivalLane="183419043#1_1" arrivalPos="11.49" arrivalSpeed="10.62" duration="33.00" routeLength="172.24" waitingTime="6.00" waitingCount="2" stopTime="0.00" timeLoss="18.75" rerouteNo="0" devices="tripinfo_VEH_117" vType="sumo_car" speedFactor="0.92" vaporized=""/>
    <tripinfo id="VEH_85" depart="126.00" departLane="921020465#1_1" departPos="5.10" departSpeed="0.00" departDelay="4.00" arrival="200.00" arrivalLane="E4_1" arrivalPos="50.96" arrivalSpeed="13.32" duration="74.00" routeLength="425.49" waitingTime="9.00" waitingCount="2" stopTime="0.00" timeLoss="34.50" rerouteNo="0" devices="tripinfo_VEH_85" vType="sumo_car" speedFactor="0.97" vaporized=""/>
    <tripinfo id="VEH_118" depart="170.00" departLane="921020465#1_1" departPos="5.10" departSpeed="0.00" departDelay="10.00" arrival="202.00" arrivalLane="183419043#1_1" arrivalPos="11.49" arrivalSpeed="11.45" duration="32.00" routeLength="172.24" waitingTime="4.00" waitingCount="2" stopTime="0.00" timeLoss="19.03" rerouteNo="0" devices="tripinfo_VEH_118" vType="sumo_car" speedFactor="1.18" vaporized=""/>
    <tripinfo id="VEH_138" depart="186.00" departLane="183049957#0_1" departPos="5.10" departSpeed="0.00" departDelay="2.00" arrival="202.00" arrivalLane="331752492#2_1" arrivalPos="66.46" arrivalSpeed="13.42" duration="16.00" routeLength="112.21" waitingTime="0.00" waitingCount="0" stopTime="0.00" timeLoss="6.80" rerouteNo="0" devices="tripinfo_VEH_138" vType="sumo_car" speedFactor="1.12" vaporized=""/>
    <tripinfo id="VEH_120" depart="176.00" departLane="921020465#1_1" departPos="5.10" departSpeed="0.00" departDelay="13.00" arrival="205.00" arrivalLane="183419043#1_1" arrivalPos="11.49" arrivalSpeed="11.78" duration="29.00" routeLength="172.24" waitingTime="0.00" waitingCount="0" stopTime="0.00" timeLoss="14.86" rerouteNo="0" devices="tripinfo_VEH_120" vType="sumo_car" speedFactor="0.99" vaporized=""/>
    <tripinfo id="VEH_140" depart="190.00" departLane="183049957#0_1" departPos="5.10" departSpeed="0.00" departDelay="1.00" arrival="206.00" arrivalLane="331752492#2_1" arrivalPos="66.46" arrivalSpeed="13.60" duration="16.00" routeLength="112.21" waitingTime="0.00" waitingCount="0" stopTime="0.00" timeLoss="6.99" rerouteNo="0" devices="tripinfo_VEH_140" vType="sumo_car" speedFactor="1.00" vaporized=""/>
    <tripinfo id="VEH_123" depart="179.00" departLane="921020465#1_1" departPos="5.10" departSpeed="0.00" departDelay="14.00" arrival="207.00" arrivalLane="183419043#1_1" arrivalPos="11.49" arrivalSpeed="11.06" duration="28.00" routeLength="172.24" waitingTime="2.00" waitingCount="1" stopTime="0.00" timeLoss="14.87" rerouteNo="0" devices="tripinfo_VEH_123" vType="sumo_car" speedFactor="1.10" vaporized=""/>
    <tripinfo id="VEH_142" depart="194.00" departLane="183049957#0_1" departPos="5.10" departSpeed="0.00" departDelay="3.00" arrival="210.00" arrivalLane="331752492#2_1" arrivalPos="66.46" arrivalSpeed="13.44" duration="16.00" routeLength="112.21" waitingTime="0.00" waitingCount="0" stopTime="0.00" timeLoss="6.79" rerouteNo="0" devices="tripinfo_VEH_142" vType="sumo_car" speedFactor="1.11" vaporized=""/>
    <tripinfo id="VEH_125" depart="184.00" departLane="921020465#1_1" departPos="5.10" departSpeed="0.00" departDelay="18.00" arrival="211.00" arrivalLane="183419043#1_1" arrivalPos="11.49" arrivalSpeed="11.78" duration="27.00" routeLength="172.24" waitingTime="2.00" waitingCount="1" stopTime="0.00" timeLoss="12.93" rerouteNo="0" devices="tripinfo_VEH_125" vType="sumo_car" speedFactor="1.02" vaporized=""/>
    <tripinfo id="VEH_128" depart="193.00" departLane="921020465#1_1" departPos="5.10" departSpeed="0.00" departDelay="23.00" arrival="215.00" arrivalLane="183419043#1_1" arrivalPos="11.49" arrivalSpeed="11.52" duration="22.00" routeLength="172.24" waitingTime="0.00" waitingCount="0" stopTime="0.00" timeLoss="8.50" rerouteNo="0" devices="tripinfo_VEH_128" vType="sumo_car" speedFactor="1.03" vaporized=""/>
    <tripinfo id="VEH_149" depart="201.00" departLane="183049957#0_1" departPos="5.10" departSpeed="0.00" departDelay="0.00" arrival="217.00" arrivalLane="331752492#2_1" arrivalPos="66.46" arrivalSpeed="13.33" duration="16.00" routeLength="112.21" waitingTime="0.00" waitingCount="0" stopTime="0.00" timeLoss="6.66" rerouteNo="0" devices="tripinfo_VEH_149" vType="sumo_car" speedFactor="1.00" vaporized=""/>
    <tripinfo id="VEH_105" depart="144.00" departLane="-1169441386_1" departPos="5.10" departSpeed="0.00" departDelay="2.00" arrival="220.00" arrivalLane="183419043#1_1" arrivalPos="11.49" arrivalSpeed="11.13" duration="76.00" routeLength="129.14" waitingTime="53.00" waitingCount="1" stopTime="0.00" timeLoss="65.65" rerouteNo="0" devices="tripinfo_VEH_105" vType="sumo_car" speedFactor="0.95" vaporized=""/>
    <tripinfo id="VEH_156" depart="213.00" departLane="-183419042#1_1" departPos="5.10" departSpeed="0.00" departDelay="5.00" arrival="239.00" arrivalLane="331752492#2_1" arrivalPos="66.46" arrivalSpeed="13.72" duration="26.00" routeLength="268.79" waitingTime="0.00" waitingCount="0" stopTime="0.00" timeLoss="6.42" rerouteNo="0" devices="tripinfo_VEH_156" vType="sumo_car" speedFactor="1.06" vaporized=""/>
    <tripinfo id="VEH_146" depart="210.00" departLane="921020465#1_1" departPos="5.10" departSpeed="0.00" departDelay="14.00" arrival="243.00" arrivalLane="183419043#1_1" arrivalPos="11.49" arrivalSpeed="9.89" duration="33.00" routeLength="172.24" waitingTime="3.00" waitingCount="2" stopTime="0.00" timeLoss="14.21" rerouteNo="0" devices="tripinfo_VEH_146" vType="sumo_car" speedFactor="0.73" vaporized=""/>
    <tripinfo id="VEH_164" depart="222.00" departLane="183049957#0_1" departPos="5.10" departSpeed="0.00" departDelay="0.00" arrival="246.00" arrivalLane="331752492#2_1" arrivalPos="66.46" arrivalSpeed="13.22" duration="24.00" routeLength="112.21" waitingTime="3.00" waitingCount="1" stopTime="0.00" timeLoss="15.04" rerouteNo="0" devices="tripinfo_VEH_164" vType="sumo_car" speedFactor="0.99" vaporized=""/>
    <tripinfo id="VEH_170" depart="226.00" departLane="183049957#0_1" departPos="5.10" departSpeed="0.00" departDelay="1.00" arrival="248.00" arrivalLane="331752492#2_1" arrivalPos="66.46" arrivalSpeed="13.40" duration="22.00" routeLength="112.21" waitingTime="2.00" waitingCount="1" stopTime="0.00" timeLoss="12.86" rerouteNo="0" devices="tripinfo_VEH_170" vType="sumo_car" speedFactor="0.98" vaporized=""/>
    <tripinfo id="VEH_106" depart="144.00" departLane="758088375#0_1" departPos="5.10" departSpeed="0.00" departDelay="0.00" arrival="249.00" arrivalLane="25973410#1_1" arrivalPos="32.08" arrivalSpeed="7.16" duration="105.00" routeLength="75.29" waitingTime="86.00" waitingCount="1" stopTime="0.00" timeLoss="94.21" rerouteNo="0" devices="tripinfo_VEH_106" vType="sumo_car" speedFactor="0.89" vaporized=""/>
    <tripinfo id="VEH_171" depart="229.00" departLane="183049957#0_1" departPos="2.30" departSpeed="0.00" departDelay="3.00" arrival="250.00" arrivalLane="331752492#2_1" arrivalPos="66.46" arrivalSpeed="12.39" duration="21.00" routeLength="115.01" waitingTime="1.00" waitingCount="1" stopTime="0.00" timeLoss="11.28" rerouteNo="0" devices="tripinfo_VEH_171" vType="sumo_motorcycle" speedFactor="0.94" vaporized=""/>
    <tripinfo id="VEH_31" depart="54.00" departLane="1162834479#1_1" departPos="0.20" departSpeed="0.00" departDelay="1.00" arrival="252.00" arrivalLane="694116204#2_1" arrivalPos="45.20" arrivalSpeed="12.47" duration="198.00" routeLength="992.43" waitingTime="59.00" waitingCount="2" stopTime="0.00" timeLoss="83.16" rerouteNo="0" devices="tripinfo_VEH_31" vType="sumo_car" speedFactor="0.93" vaporized=""/>
    <tripinfo id="VEH_177" depart="233.00" departLane="183049957#0_1" departPos="5.10" departSpeed="0.00" departDelay="4.00" arrival="252.00" arrivalLane="331752492#2_1" arrivalPos="66.46" arrivalSpeed="12.73" duration="19.00" routeLength="112.21" waitingTime="0.00" waitingCount="0" stopTime="0.00" timeLoss="9.33" rerouteNo="0" devices="tripinfo_VEH_177" vType="sumo_car" speedFactor="0.92" vaporized=""/>
    <tripinfo id="VEH_58" depart="93.00" departLane="-E4_1" departPos="5.10" departSpeed="0.00" departDelay="0.00" arrival="253.00" arrivalLane="-E13_1" arrivalPos="59.59" arrivalSpeed="12.11" duration="160.00" routeLength="798.13" waitingTime="46.00" waitingCount="1" stopTime="0.00" timeLoss="63.43" rerouteNo="0" devices="tripinfo_VEH_58" vType="sumo_car" speedFactor="0.90" vaporized=""/>
    <tripinfo id="VEH_162" depart="221.00" departLane="921020465#1_1" departPos="5.10" departSpeed="0.00" departDelay="0.00" arrival="253.00" arrivalLane="183419043#1_1" arrivalPos="11.49" arrivalSpeed="9.93" duration="32.00" routeLength="172.24" waitingTime="5.00" waitingCount="1" stopTime="0.00" timeLoss="16.57" rerouteNo="0" devices="tripinfo_VEH_162" vType="sumo_car" speedFactor="0.88" vaporized=""/>
    <tripinfo id="VEH_52" depart="81.00" departLane="758088375#0_1" departPos="2.30" departSpeed="0.00" departDelay="0.00" arrival="255.00" arrivalLane="-E13_1" arrivalPos="59.59" arrivalSpeed="10.95" duration="174.00" routeLength="895.67" waitingTime="38.00" waitingCount="2" stopTime="0.00" timeLoss="60.76" rerouteNo="0" devices="tripinfo_VEH_52" vType="sumo_motorcycle" speedFactor="0.85" vaporized=""/>
    <tripinfo id="VEH_21" depart="35.00" departLane="921020465#1_1" departPos="5.10" departSpeed="0.00" departDelay="0.00" arrival="256.00" arrivalLane="-E13_1" arrivalPos="59.59" arrivalSpeed="12.76" duration="221.00" routeLength="1106.96" waitingTime="72.00" waitingCount="2" stopTime="0.00" timeLoss="118.47" rerouteNo="0" devices="tripinfo_VEH_21" vType="sumo_car" speedFactor="1.16" vaporized=""/>
    <tripinfo id="BUS_1-route_114" depart="0.00" departLane="-37181834#3_0" departPos="12.10" departSpeed="0.00" departDelay="0.00" arrival="264.00" arrivalLane="183419042#9_0" arrivalPos="17.60" arrivalSpeed="13.69" duration="264.00" routeLength="1568.26" waitingTime="0.00" waitingCount="0" stopTime="60.00" timeLoss="51.62" rerouteNo="0" devices="tripinfo_BUS_1-route_114" vType="sumo_bus" speedFactor="1.00" vaporized=""/>