<?xml version="1.0" encoding="UTF-8"?>

<!-- generated on 2025-06-28 15:03:09 by Eclipse SUMO sumo Version 1.19.0
<configuration xmlns:xsi="http://www.w3.org/2001/XMLSchema-instance" xsi:noNamespaceSchemaLocation="http://sumo.dlr.de/xsd/sumoConfiguration.xsd">

    <input>
        <net-file value="../model/Network.net.xml"/>
        <route-files value="../model/CarRoutes.rou.xml"/>
        <additional-files value="../model/BusStops.add.xml"/>
    </input>

    <output>
        <summary-output value="../model/logs/Log_summary.xml"/>
        <summary-output.period value="300"/>
        <tripinfo-output value="../model/logs/TripInfos.xml"/>
    </output>

    <time>
        <begin value="0"/>
        <end value="86400"/>
        <step-length value="1"/>
    </time>

    <processing>
        <ignore-junction-blocker value="0.1"/>
        <time-to-teleport value="-1"/>
        <waiting-time-memory value="6000"/>
    </processing>

    <report>
        <verbose value="true"/>
        <no-step-log value="true"/>
    </report>

    <traci_server>
        <remote-port value="62328"/>
    </traci_server>

    <gui_only>
        <quit-on-end value="true"/>
        <start value="true"/>
    </gui_only>

</configuration>
-->

<tripinfos xmlns:xsi="http://www.w3.org/2001/XMLSchema-instance" xsi:noNamespaceSchemaLocation="http://sumo.dlr.de/xsd/tripinfo_file.xsd">
    <tripinfo id="VEH_5" depart="12.00" departLane="183049957#0_1" departPos="5.10" departSpeed="0.00" departDelay="0.00" arrival="28.00" arrivalLane="331752492#2_1" arrivalPos="66.46" arrivalSpeed="13.32" duration="16.00" routeLength="112.21" waitingTime="0.00" waitingCount="0" stopTime="0.00" timeLoss="6.63" rerouteNo="0" devices="tripinfo_VEH_5" vType="sumo_car" speedFactor="1.08" vaporized=""/>
    <tripinfo id="VEH_7" depart="15.00" departLane="183049957#0_1" departPos="2.30" departSpeed="0.00" departDelay="0.00" arrival="32.00" arrivalLane="331752492#2_1" arrivalPos="66.46" arrivalSpeed="11.38" duration="17.00" routeLength="115.01" waitingTime="0.00" waitingCount="0" stopTime="0.00" timeLoss="5.75" rerouteNo="0" devices="tripinfo_VEH_7" vType="sumo_motorcycle" speedFactor="0.83" vaporized=""/>
    <tripinfo id="VEH_9" depart="18.00" departLane="183049957#0_1" departPos="5.10" departSpeed="0.00" departDelay="1.00" arrival="35.00" arrivalLane="331752492#2_1" arrivalPos="66.46" arrivalSpeed="12.19" duration="17.00" routeLength="112.21" waitingTime="0.00" waitingCount="0" stopTime="0.00" timeLoss="6.57" rerouteNo="0" devices="tripinfo_VEH_9" vType="sumo_car" speedFactor="0.89" vaporized=""/>
    <tripinfo id="VEH_11" depart="22.00" departLane="183049957#0_1" departPos="5.10" departSpeed="0.00" departDelay="1.00" arrival="39.00" arrivalLane="331752492#2_1" arrivalPos="66.46" arrivalSpeed="11.25" duration="17.00" routeLength="112.21" waitingTime="0.00" waitingCount="0" stopTime="0.00" timeLoss="6.46" rerouteNo="0" devices="tripinfo_VEH_11" vType="sumo_car" speedFactor="0.86" vaporized=""/>
    <tripinfo id="VEH_17" depart="27.00" departLane="183049957#0_1" departPos="5.10" departSpeed="0.00" departDelay="0.00" arrival="43.00" arrivalLane="331752492#2_1" arrivalPos="66.46" arrivalSpeed="12.38" duration="16.00" routeLength="112.21" waitingTime="0.00" waitingCount="0" stopTime="0.00" timeLoss="6.41" rerouteNo="0" devices="tripinfo_VEH_17" vType="sumo_car" speedFactor="0.93" vaporized=""/>
    <tripinfo id="VEH_20" depart="33.00" departLane="183049957#0_1" departPos="5.10" departSpeed="0.00" departDelay="0.00" arrival="49.00" arrivalLane="331752492#2_1" arrivalPos="66.46" arrivalSpeed="12.75" duration="16.00" routeLength="112.21" waitingTime="0.00" waitingCount="0" stopTime="0.00" timeLoss="6.76" rerouteNo="0" devices="tripinfo_VEH_20" vType="sumo_car" speedFactor="0.94" vaporized=""/>
    <tripinfo id="VEH_22" depart="42.00" departLane="183049957#0_1" departPos="2.30" departSpeed="0.00" departDelay="0.00" arrival="57.00" arrivalLane="331752492#2_1" arrivalPos="66.46" arrivalSpeed="13.45" duration="15.00" routeLength="115.01" waitingTime="0.00" waitingCount="0" stopTime="0.00" timeLoss="5.60" rerouteNo="0" devices="tripinfo_VEH_22" vType="sumo_motorcycle" speedFactor="1.02" vaporized=""/>
    <tripinfo id="VEH_16" depart="27.00" departLane="758088375#0_1" departPos="2.30" departSpeed="0.00" departDelay="0.00" arrival="68.00" arrivalLane="25973410#1_1" arrivalPos="32.08" arrivalSpeed="8.21" duration="41.00" routeLength="78.09" waitingTime="25.00" waitingCount="1" stopTime="0.00" timeLoss="31.00" rerouteNo="0" devices="tripinfo_VEH_16" vType="sumo_motorcycle" speedFactor="0.99" vaporized=""/>
    <tripinfo id="VEH_14" depart="23.00" departLane="921020465#1_1" departPos="5.10" departSpeed="0.00" departDelay="0.00" arrival="69.00" arrivalLane="E4_1" arrivalPos="50.96" arrivalSpeed="13.76" duration="46.00" routeLength="425.49" waitingTime="0.00" waitingCount="0" stopTime="0.00" timeLoss="8.26" rerouteNo="0" devices="tripinfo_VEH_14" vType="sumo_car" speedFactor="1.05" vaporized=""/>
    <tripinfo id="VEH_10" depart="19.00" departLane="-25973410#1_1" departPos="5.10" departSpeed="0.00" departDelay="1.00" arrival="70.00" arrivalLane="-758088375#0_1" arrivalPos="24.98" arrivalSpeed="7.45" duration="51.00" routeLength="75.26" waitingTime="33.00" waitingCount="1" stopTime="0.00" timeLoss="41.19" rerouteNo="0" devices="tripinfo_VEH_10" vType="sumo_car" speedFactor="0.94" vaporized=""/>
    <tripinfo id="VEH_40" depart="69.00" departLane="183049957#0_1" departPos="14.45" departSpeed="0.00" departDelay="0.00" arrival="89.00" arrivalLane="331752492#2_1" arrivalPos="66.46" arrivalSpeed="9.80" duration="20.00" routeLength="102.86" waitingTime="0.00" waitingCount="0" stopTime="0.00" timeLoss="8.72" rerouteNo="0" devices="tripinfo_VEH_40" vType="sumo_truck" speedFactor="1.05" vaporized=""/>
    <tripinfo id="VEH_46" depart="74.00" departLane="-1169441386_1" departPos="6.60" departSpeed="0.00" departDelay="0.00" arrival="94.00" arrivalLane="183419043#1_1" arrivalPos="11.49" arrivalSpeed="10.90" duration="20.00" routeLength="127.64" waitingTime="0.00" waitingCount="0" stopTime="0.00" timeLoss="8.44" rerouteNo="0" devices="tripinfo_VEH_46" vType="sumo_transporter" speedFactor="1.02" vaporized=""/>
    <tripinfo id="VEH_55" depart="86.00" departLane="758088375#0_1" departPos="5.10" departSpeed="0.00" departDelay="0.00" arrival="98.00" arrivalLane="25973410#1_1" arrivalPos="32.08" arrivalSpeed="8.81" duration="12.00" routeLength="75.29" waitingTime="0.00" waitingCount="0" stopTime="0.00" timeLoss="3.37" rerouteNo="0" devices="tripinfo_VEH_55" vType="sumo_car" speedFactor="1.10" vaporized=""/>
    <tripinfo id="VEH_53" depart="85.00" departLane="183049957#0_1" departPos="5.10" departSpeed="0.00" departDelay="0.00" arrival="100.00" arrivalLane="331752492#2_1" arrivalPos="66.46" arrivalSpeed="13.69" duration="15.00" routeLength="112.21" waitingTime="0.00" waitingCount="0" stopTime="0.00" timeLoss="6.57" rerouteNo="0" devices="tripinfo_VEH_53" vType="sumo_car" speedFactor="1.17" vaporized=""/>
    <tripinfo id="VEH_54" depart="85.00" departLane="-1169441386_1" departPos="5.10" departSpeed="0.00" departDelay="0.00" arrival="104.00" arrivalLane="694116204#2_2" arrivalPos="45.20" arrivalSpeed="13.39" duration="19.00" routeLength="175.49" waitingTime="0.00" waitingCount="0" stopTime="0.00" timeLoss="5.85" rerouteNo="0" devices="tripinfo_VEH_54" vType="sumo_car" speedFactor="1.02" vaporized=""/>
    <tripinfo id="VEH_39" depart="81.00" departLane="921020465#1_1" departPos="5.10" departSpeed="0.00" departDelay="15.00" arrival="108.00" arrivalLane="183419043#1_1" arrivalPos="11.49" arrivalSpeed="13.41" duration="27.00" routeLength="172.24" waitingTime="2.00" waitingCount="1" stopTime="0.00" timeLoss="13.88" rerouteNo="0" devices="tripinfo_VEH_39" vType="sumo_car" speedFactor="1.18" vaporized=""/>
    <tripinfo id="VEH_42" depart="88.00" departLane="921020465#1_1" departPos="2.30" departSpeed="0.00" departDelay="19.00" arrival="110.00" arrivalLane="183419043#1_1" arrivalPos="11.49" arrivalSpeed="12.81" duration="22.00" routeLength="175.04" waitingTime="0.00" waitingCount="0" stopTime="0.00" timeLoss="8.77" rerouteNo="0" devices="tripinfo_VEH_42" vType="sumo_motorcycle" speedFactor="1.03" vaporized=""/>
    <tripinfo id="VEH_56" depart="87.00" departLane="758088375#0_1" departPos="5.10" departSpeed="0.00" departDelay="0.00" arrival="112.00" arrivalLane="E4_1" arrivalPos="50.96" arrivalSpeed="13.69" duration="25.00" routeLength="211.40" waitingTime="0.00" waitingCount="0" stopTime="0.00" timeLoss="5.36" rerouteNo="0" devices="tripinfo_VEH_56" vType="sumo_car" speedFactor="1.00" vaporized=""/>
    <tripinfo id="VEH_44" depart="92.00" departLane="921020465#1_1" departPos="5.10" departSpeed="0.00" departDelay="21.00" arrival="115.00" arrivalLane="183419043#1_1" arrivalPos="11.49" arrivalSpeed="12.69" duration="23.00" routeLength="172.24" waitingTime="2.00" waitingCount="1" stopTime="0.00" timeLoss="9.88" rerouteNo="0" devices="tripinfo_VEH_44" vType="sumo_car" speedFactor="1.09" vaporized=""/>
    <tripinfo id="VEH_45" depart="96.00" departLane="921020465#1_1" departPos="5.10" departSpeed="0.00" departDelay="23.00" arrival="119.00" arrivalLane="183419043#1_1" arrivalPos="11.49" arrivalSpeed="12.81" duration="23.00" routeLength="172.24" waitingTime="1.00" waitingCount="1" stopTime="0.00" timeLoss="9.00" rerouteNo="0" devices="tripinfo_VEH_45" vType="sumo_car" speedFactor="1.04" vaporized=""/>
    <tripinfo id="VEH_68" depart="107.00" departLane="183049957#0_1" departPos="5.10" departSpeed="0.00" departDelay="0.00" arrival="123.00" arrivalLane="331752492#2_1" arrivalPos="66.46" arrivalSpeed="12.32" duration="16.00" routeLength="112.21" waitingTime="0.00" waitingCount="0" stopTime="0.00" timeLoss="6.57" rerouteNo="0" devices="tripinfo_VEH_68" vType="sumo_car" speedFactor="0.91" vaporized=""/>
    <tripinfo id="VEH_75" depart="111.00" departLane="183049957#0_1" departPos="5.10" departSpeed="0.00" departDelay="0.00" arrival="127.00" arrivalLane="331752492#2_1" arrivalPos="66.46" arrivalSpeed="13.68" duration="16.00" routeLength="112.21" waitingTime="0.00" waitingCount="0" stopTime="0.00" timeLoss="6.71" rerouteNo="0" devices="tripinfo_VEH_75" vType="sumo_car" speedFactor="1.06" vaporized=""/>
    <tripinfo id="VEH_13" depart="23.00" departLane="-E4_1" departPos="5.10" departSpeed="0.00" departDelay="0.00" arrival="129.00" arrivalLane="-E2_1" arrivalPos="20.13" arrivalSpeed="10.14" duration="106.00" routeLength="88.22" waitingTime="87.00" waitingCount="1" stopTime="0.00" timeLoss="99.29" rerouteNo="0" devices="tripinfo_VEH_13" vType="sumo_car" speedFactor="1.03" vaporized=""/>
    <tripinfo id="VEH_6" depart="15.00" departLane="-25973410#1_1" departPos="5.10" departSpeed="0.00" departDelay="0.00" arrival="131.00" arrivalLane="694116204#2_1" arrivalPos="45.20" arrivalSpeed="13.69" duration="116.00" routeLength="221.68" waitingTime="77.00" waitingCount="2" stopTime="0.00" timeLoss="94.99" rerouteNo="0" devices="tripinfo_VEH_6" vType="sumo_car" speedFactor="1.03" vaporized=""/>
    <tripinfo id="VEH_26" depart="47.00" departLane="-E4_1" departPos="5.10" departSpeed="0.00" departDelay="0.00" arrival="131.00" arrivalLane="-E2_1" arrivalPos="20.13" arrivalSpeed="11.17" duration="84.00" routeLength="88.22" waitingTime="64.00" waitingCount="1" stopTime="0.00" timeLoss="75.83" rerouteNo="0" devices="tripinfo_VEH_26" vType="sumo_car" speedFactor="0.83" vaporized=""/>
    <tripinfo id="VEH_79" depart="115.00" departLane="183049957#0_1" departPos="5.10" departSpeed="0.00" departDelay="2.00" arrival="131.00" arrivalLane="331752492#2_1" arrivalPos="66.46" arrivalSpeed="13.46" duration="16.00" routeLength="112.21" waitingTime="0.00" waitingCount="0" stopTime="0.00" timeLoss="6.80" rerouteNo="0" devices="tripinfo_VEH_79" vType="sumo_car" speedFactor="0.98" vaporized=""/>
    <tripinfo id="VEH_23" depart="43.00" departLane="-25973410#1_1" departPos="5.10" departSpeed="0.00" departDelay="0.00" arrival="132.00" arrivalLane="694116204#2_1" arrivalPos="45.20" arrivalSpeed="13.76" duration="89.00" routeLength="221.68" waitingTime="47.00" waitingCount="2" stopTime="0.00" timeLoss="67.34" rerouteNo="0" devices="tripinfo_VEH_23" vType="sumo_car" speedFactor="1.01" vaporized=""/>
    <tripinfo id="VEH_82" depart="119.00" departLane="183049957#0_1" departPos="5.10" departSpeed="0.00" departDelay="1.00" arrival="135.00" arrivalLane="331752492#2_1" arrivalPos="66.46" arrivalSpeed="13.82" duration="16.00" routeLength="112.21" waitingTime="0.00" waitingCount="0" stopTime="0.00" timeLoss="6.62" rerouteNo="0" devices="tripinfo_VEH_82" vType="sumo_car" speedFactor="1.03" vaporized=""/>
    <tripinfo id="VEH_35" depart="60.00" departLane="-25973410#1_1" departPos="6.60" departSpeed="0.00" departDelay="0.00" arrival="136.00" arrivalLane="694116204#2_1" arrivalPos="45.20" arrivalSpeed="10.73" duration="76.00" routeLength="220.18" waitingTime="39.00" waitingCount="1" stopTime="0.00" timeLoss="52.92" rerouteNo="0" devices="tripinfo_VEH_35" vType="sumo_transporter" speedFactor="1.09" vaporized=""/>
    <tripinfo id="VEH_88" depart="124.00" departLane="183049957#0_1" departPos="5.10" departSpeed="0.00" departDelay="0.00" arrival="140.00" arrivalLane="331752492#2_1" arrivalPos="66.46" arrivalSpeed="13.71" duration="16.00" routeLength="112.21" waitingTime="0.00" waitingCount="0" stopTime="0.00" timeLoss="6.78" rerouteNo="0" devices="tripinfo_VEH_88" vType="sumo_car" speedFactor="1.00" vaporized=""/>
    <tripinfo id="VEH_3" depart="5.00" departLane="-E4_1" departPos="5.10" departSpeed="0.00" departDelay="0.00" arrival="143.00" arrivalLane="-758088375#0_1" arrivalPos="24.98" arrivalSpeed="7.66" duration="138.00" routeLength="212.81" waitingTime="104.00" waitingCount="1" stopTime="0.00" timeLoss="115.53" rerouteNo="0" devices="tripinfo_VEH_3" vType="sumo_car" speedFactor="0.94" vaporized=""/>
    <tripinfo id="VEH_84" depart="122.00" departLane="-E4_1" departPos="5.10" departSpeed="0.00" departDelay="0.00" arrival="150.00" arrivalLane="-758088375#0_1" arrivalPos="24.98" arrivalSpeed="8.38" duration="28.00" routeLength="212.81" waitingTime="0.00" waitingCount="0" stopTime="0.00" timeLoss="7.58" rerouteNo="0" devices="tripinfo_VEH_84" vType="sumo_car" speedFactor="1.02" vaporized=""/>
    <tripinfo id="VEH_98" depart="135.00" departLane="183049957#0_1" departPos="5.10" departSpeed="0.00" departDelay="0.00" arrival="151.00" arrivalLane="331752492#2_1" arrivalPos="66.46" arrivalSpeed="13.31" duration="16.00" routeLength="112.21" waitingTime="0.00" waitingCount="0" stopTime="0.00" timeLoss="6.98" rerouteNo="0" devices="tripinfo_VEH_98" vType="sumo_car" speedFactor="1.01" vaporized=""/>
    <tripinfo id="VEH_89" depart="125.00" departLane="-E4_1" departPos="2.30" departSpeed="0.00" departDelay="0.00" arrival="153.00" arrivalLane="-758088375#0_1" arrivalPos="24.98" arrivalSpeed="7.83" duration="28.00" routeLength="215.61" waitingTime="0.00" waitingCount="0" stopTime="0.00" timeLoss="7.13" rerouteNo="0" devices="tripinfo_VEH_89" vType="sumo_motorcycle" speedFactor="1.04" vaporized=""/>
    <tripinfo id="VEH_101" depart="138.00" departLane="183049957#0_1" departPos="5.10" departSpeed="0.00" departDelay="1.00" arrival="155.00" arrivalLane="331752492#2_1" arrivalPos="66.46" arrivalSpeed="13.53" duration="17.00" routeLength="112.21" waitingTime="1.00" waitingCount="1" stopTime="0.00" timeLoss="7.56" rerouteNo="0" devices="tripinfo_VEH_101" vType="sumo_car" speedFactor="1.10" vaporized=""/>
    <tripinfo id="VEH_112" depart="150.00" departLane="183049957#0_1" departPos="2.30" departSpeed="0.00" departDelay="0.00" arrival="166.00" arrivalLane="331752492#2_1" arrivalPos="66.46" arrivalSpeed="12.13" duration="16.00" routeLength="115.01" waitingTime="0.00" waitingCount="0" stopTime="0.00" timeLoss="6.10" rerouteNo="0" devices="tripinfo_VEH_112" vType="sumo_motorcycle" speedFactor="0.93" vaporized=""/>
    <tripinfo id="VEH_49" depart="105.00" departLane="921020465#1_1" departPos="15.10" departSpeed="0.00" departDelay="27.00" arrival="167.00" arrivalLane="183419043#1_1" arrivalPos="11.49" arrivalSpeed="7.87" duration="62.00" routeLength="162.24" waitingTime="29.00" waitingCount="2" stopTime="0.00" timeLoss="45.54" rerouteNo="0" devices="tripinfo_VEH_49" vType="sumo_truck" speedFactor="0.95" vaporized=""/>
    <tripinfo id="VEH_93" depart="135.00" departLane="-E4_1" departPos="5.10" departSpeed="0.00" departDelay="6.00" arrival="167.00" arrivalLane="-758088375#0_1" arrivalPos="24.98" arrivalSpeed="6.68" duration="32.00" routeLength="212.81" waitingTime="0.00" waitingCount="0" stopTime="0.00" timeLoss="8.82" rerouteNo="0" devices="tripinfo_VEH_93" vType="sumo_car" speedFactor="0.89" vaporized=""/>
    <tripinfo id="VEH_91" depart="130.00" departLane="-E4_1" departPos="15.10" departSpeed="0.00" departDelay="3.00" arrival="179.00" arrivalLane="694116204#2_1" arrivalPos="45.20" arrivalSpeed="9.98" duration="49.00" routeLength="360.12" waitingTime="0.00" waitingCount="0" stopTime="0.00" timeLoss="9.99" rerouteNo="0" devices="tripinfo_VEH_91" vType="sumo_truck" speedFactor="1.01" vaporized=""/>
    <tripinfo id="VEH_130" depart="171.00" departLane="183049957#0_1" departPos="5.10" departSpeed="0.00" departDelay="0.00" arrival="187.00" arrivalLane="331752492#2_1" arrivalPos="66.46" arrivalSpeed="13.55" duration="16.00" routeLength="112.21" waitingTime="0.00" waitingCount="0" stopTime="0.00" timeLoss="6.93" rerouteNo="0" devices="tripinfo_VEH_130" vType="sumo_car" speedFactor="1.12" vaporized=""/>
    <tripinfo id="VEH_105" depart="144.00" departLane="-1169441386_1" departPos="15.10" departSpeed="0.00" departDelay="2.00" arrival="189.00" arrivalLane="183419043#1_1" arrivalPos="11.49" arrivalSpeed="7.30" duration="45.00" routeLength="119.14" waitingTime="13.00" waitingCount="1" stopTime="0.00" timeLoss="32.64" rerouteNo="0" devices="tripinfo_VEH_105" vType="sumo_truck" speedFactor="0.98" vaporized=""/>
    <tripinfo id="VEH_106" depart="144.00" departLane="758088375#0_1" departPos="5.10" departSpeed="0.00" departDelay="0.00" arrival="190.00" arrivalLane="25973410#1_1" arrivalPos="32.08" arrivalSpeed="6.79" duration="46.00" routeLength="75.29" waitingTime="27.00" waitingCount="1" stopTime="0.00" timeLoss="34.99" rerouteNo="0" devices="tripinfo_VEH_106" vType="sumo_car" speedFactor="0.89" vaporized=""/>
    <tripinfo id="VEH_15" depart="24.00" departLane="-183419042#1_1" departPos="5.10" departSpeed="0.00" departDelay="0.00" arrival="192.00" arrivalLane="331752492#2_1" arrivalPos="66.46" arrivalSpeed="13.29" duration="168.00" routeLength="268.79" waitingTime="136.00" waitingCount="1" stopTime="0.00" timeLoss="148.50" rerouteNo="0" devices="tripinfo_VEH_15" vType="sumo_car" speedFactor="1.12" vaporized=""/>
    <tripinfo id="VEH_100" depart="137.00" departLane="-183419042#1_1" departPos="5.10" departSpeed="0.00" departDelay="0.00" arrival="195.00" arrivalLane="331752492#2_1" arrivalPos="66.46" arrivalSpeed="13.33" duration="58.00" routeLength="268.79" waitingTime="22.00" waitingCount="1" stopTime="0.00" timeLoss="38.06" rerouteNo="0" devices="tripinfo_VEH_100" vType="sumo_car" speedFactor="1.12" vaporized=""/>
    <tripinfo id="VEH_136" depart="182.00" departLane="183049957#0_1" departPos="5.10" departSpeed="0.00" departDelay="0.00" arrival="197.00" arrivalLane="331752492#2_1" arrivalPos="66.46" arrivalSpeed="13.62" duration="15.00" routeLength="112.21" waitingTime="0.00" waitingCount="0" stopTime="0.00" timeLoss="6.35" rerouteNo="0" devices="tripinfo_VEH_136" vType="sumo_car" speedFactor="1.23" vaporized=""/>
    <tripinfo id="VEH_138" depart="186.00" departLane="183049957#0_1" departPos="5.10" departSpeed="0.00" departDelay="2.00" arrival="201.00" arrivalLane="331752492#2_1" arrivalPos="66.46" arrivalSpeed="13.43" duration="15.00" routeLength="112.21" waitingTime="0.00" waitingCount="0" stopTime="0.00" timeLoss="6.51" rerouteNo="0" devices="tripinfo_VEH_138" vType="sumo_car" speedFactor="1.12" vaporized=""/>
    <tripinfo id="VEH_52" depart="81.00" departLane="758088375#0_1" departPos="5.10" departSpeed="0.00" departDelay="0.00" arrival="205.00" arrivalLane="-E13_1" arrivalPos="59.59" arrivalSpeed="11.19" duration="124.00" routeLength="892.87" waitingTime="0.00" waitingCount="0" stopTime="0.00" timeLoss="10.51" rerouteNo="0" devices="tripinfo_VEH_52" vType="sumo_car" speedFactor="0.85" vaporized=""/>
    <tripinfo id="VEH_140" depart="190.00" departLane="183049957#0_1" departPos="5.10" departSpeed="0.00" departDelay="1.00" arrival="206.00" arrivalLane="331752492#2_1" arrivalPos="66.46" arrivalSpeed="13.67" duration="16.00" routeLength="112.21" waitingTime="0.00" waitingCount="0" stopTime="0.00" timeLoss="6.81" rerouteNo="0" devices="tripinfo_VEH_140" vType="sumo_car" speedFactor="1.00" vaporized=""/>
    <tripinfo id="VEH_142" depart="194.00" departLane="183049957#0_1" departPos="5.10" departSpeed="0.00" departDelay="3.00" arrival="210.00" arrivalLane="331752492#2_1" arrivalPos="66.46" arrivalSpeed="13.37" duration="16.00" routeLength="112.21" waitingTime="0.00" waitingCount="0" stopTime="0.00" timeLoss="6.96" rerouteNo="0" devices="tripinfo_VEH_142" vType="sumo_car" speedFactor="1.11" vaporized=""/>
    <tripinfo id="VEH_149" depart="201.00" departLane="183049957#0_1" departPos="2.30" departSpeed="0.00" departDelay="0.00" arrival="216.00" arrivalLane="331752492#2_1" arrivalPos="66.46" arrivalSpeed="13.52" duration="15.00" routeLength="115.01" waitingTime="0.00" waitingCount="0" stopTime="0.00" timeLoss="6.28" rerouteNo="0" devices="tripinfo_VEH_149" vType="sumo_motorcycle" speedFactor="1.00" vaporized=""/>
    <tripinfo id="VEH_58" depart="93.00" departLane="-E4_1" departPos="5.10" departSpeed="0.00" departDelay="0.00" arrival="226.00" arrivalLane="-E13_1" arrivalPos="59.59" arrivalSpeed="12.23" duration="133.00" routeLength="798.13" waitingTime="19.00" waitingCount="1" stopTime="0.00" timeLoss="36.76" rerouteNo="0" devices="tripinfo_VEH_58" vType="sumo_car" speedFactor="0.90" vaporized=""/>
    <tripinfo id="VEH_78" depart="112.00" departLane="-E4_1" departPos="5.10" departSpeed="0.00" departDelay="0.00" arrival="228.00" arrivalLane="-E13_1" arrivalPos="59.59" arrivalSpeed="13.72" duration="116.00" routeLength="798.13" waitingTime="3.00" waitingCount="1" stopTime="0.00" timeLoss="31.63" rerouteNo="0" devices="tripinfo_VEH_78" vType="sumo_car" speedFactor="1.03" vaporized=""/>
    <tripinfo id="VEH_164" depart="222.00" departLane="183049957#0_1" departPos="5.10" departSpeed="0.00" departDelay="0.00" arrival="238.00" arrivalLane="331752492#2_1" arrivalPos="66.46" arrivalSpeed="13.09" duration="16.00" routeLength="112.21" waitingTime="0.00" waitingCount="0" stopTime="0.00" timeLoss="7.32" rerouteNo="0" devices="tripinfo_VEH_164" vType="sumo_car" speedFactor="0.99" vaporized=""/>
    <tripinfo id="VEH_170" depart="226.00" departLane="183049957#0_1" departPos="5.10" departSpeed="0.00" departDelay="1.00" arrival="242.00" arrivalLane="331752492#2_1" arrivalPos="66.46" arrivalSpeed="13.54" duration="16.00" routeLength="112.21" waitingTime="0.00" waitingCount="0" stopTime="0.00" timeLoss="6.82" rerouteNo="0" devices="tripinfo_VEH_170" vType="sumo_car" speedFactor="0.98" vaporized=""/>
    <tripinfo id="VEH_2" depart="1.00" departLane="-E4_1" departPos="5.10" departSpeed="0.00" departDelay="0.00" arrival="249.00" arrivalLane="-1162834479#1_1" arrivalPos="0.20" arrivalSpeed="10.86" duration="248.00" routeLength="746.01" waitingTime="147.00" waitingCount="2" stopTime="0.00" timeLoss="168.77" rerouteNo="0" devices="tripinfo_VEH_2" vType="sumo_car" speedFactor="1.06" vaporized=""/>
    <tripinfo id="VEH_96" depart="143.00" departLane="-E4_1" departPos="5.10" departSpeed="0.00" departDelay="10.00" arrival="251.00" arrivalLane="694116204#2_1" arrivalPos="45.20" arrivalSpeed="13.80" duration="108.00" routeLength="370.12" waitingTime="53.00" waitingCount="1" stopTime="0.00" timeLoss="74.37" rerouteNo="0" devices="tripinfo_VEH_96" vType="sumo_car" speedFactor="1.09" vaporized=""/>
    <tripinfo id="VEH_171" depart="231.00" departLane="183049957#0_1" departPos="14.45" departSpeed="0.00" departDelay="5.00" arrival="251.00" arrivalLane="331752492#2_1" arrivalPos="66.46" arrivalSpeed="9.88" duration="20.00" routeLength="102.86" waitingTime="0.00" waitingCount="0" stopTime="0.00" timeLoss="8.82" rerouteNo="0" devices="tripinfo_VEH_171" vType="sumo_truck" speedFactor="0.97" vaporized=""/>
    <tripinfo id="VEH_94" depart="140.00" departLane="-E4_1" departPos="5.10" departSpeed="0.00" departDelay="9.00" arrival="253.00" arrivalLane="694116204#2_1" arrivalPos="45.20" arrivalSpeed="11.16" duration="113.00" routeLength="370.12" waitingTime="56.00" waitingCount="1" stopTime="0.00" timeLoss="71.25" rerouteNo="0" devices="tripinfo_VEH_94" vType="sumo_car" speedFactor="0.83" vaporized=""/>
    <tripinfo id="VEH_177" depart="237.00" departLane="183049957#0_1" departPos="5.10" departSpeed="0.00" departDelay="8.00" arrival="254.00" arrivalLane="331752492#2_1" arrivalPos="66.46" arrivalSpeed="12.22" duration="17.00" routeLength="112.21" waitingTime="0.00" waitingCount="0" stopTime="0.00" timeLoss="6.98" rerouteNo="0" devices="tripinfo_VEH_177" vType="sumo_car" speedFactor="0.92" vaporized=""/>
    <tripinfo id="VEH_200" depart="262.00" departLane="183049957#0_1" departPos="5.10" departSpeed="0.00" departDelay="0.00" arrival="277.00" arrivalLane="331752492#2_1" arrivalPos="66.46" arrivalSpeed="13.75" duration="15.00" routeLength="112.21" waitingTime="0.00" waitingCount="0" stopTime="0.00" timeLoss="6.36" rerouteNo="0" devices="tripinfo_VEH_200" vType="sumo_car" speedFactor="1.06" vaporized=""/>
    <tripinfo id="VEH_169" depart="225.00" departLane="-E4_1" departPos="5.10" departSpeed="0.00" departDelay="0.00" arrival="285.00" arrivalLane="694116204#2_1" arrivalPos="45.20" arrivalSpeed="13.29" duration="60.00" routeLength="370.12" waitingTime="9.00" waitingCount="1" stopTime="0.00" timeLoss="25.67" rerouteNo="0" devices="tripinfo_VEH_169" vType="sumo_car" speedFactor="1.03" vaporized=""/>
    <tripinfo id="VEH_213" depart="276.00" departLane="183049957#0_1" departPos="5.10" departSpeed="0.00" departDelay="0.00" arrival="292.00" arrivalLane="331752492#2_1" arrivalPos="66.46" arrivalSpeed="13.21" duration="16.00" routeLength="112.21" waitingTime="0.00" waitingCount="0" stopTime="0.00" timeLoss="6.79" rerouteNo="0" devices="tripinfo_VEH_213" vType="sumo_car" speedFactor="1.04" vaporized=""/>
    <tripinfo id="VEH_229" depart="294.00" departLane="183049957#0_1" departPos="2.30" departSpeed="0.00" departDelay="0.00" arrival="309.00" arrivalLane="331752492#2_1" arrivalPos="66.46" arrivalSpeed="15.16" duration="15.00" routeLength="115.01" waitingTime="0.00" waitingCount="0" stopTime="0.00" timeLoss="6.77" rerouteNo="0" devices="tripinfo_VEH_229" vType="sumo_motorcycle" speedFactor="1.11" vaporized=""/>
    <tripinfo id="VEH_103" depart="139.00" departLane="-1169441386_1" departPos="5.10" departSpeed="0.00" departDelay="0.00" arrival="311.00" arrivalLane="694116204#2_2" arrivalPos="45.20" arrivalSpeed="13.10" duration="172.00" routeLength="175.49" waitingTime="147.00" waitingCount="1" stopTime="0.00" timeLoss="158.75" rerouteNo="0" devices="tripinfo_VEH_103" vType="sumo_car" speedFactor="0.96" vaporized=""/>
    <tripinfo id="VEH_104" depart="141.00" departLane="-1169441386_1" departPos="5.10" departSpeed="0.00" departDelay="0.00" arrival="313.00" arrivalLane="694116204#2_2" arrivalPos="45.20" arrivalSpeed="12.93" duration="172.00" routeLength="175.49" waitingTime="144.00" waitingCount="1" stopTime="0.00" timeLoss="158.83" rerouteNo="0" devices="tripinfo_VEH_104" vType="sumo_car" speedFactor="0.97" vaporized=""/>
    <tripinfo id="VEH_107" depart="149.00" departLane="-1169441386_1" departPos="5.10" departSpeed="0.00" departDelay="5.00" arrival="316.00" arrivalLane="694116204#2_2" arrivalPos="45.20" arrivalSpeed="13.76" duration="167.00" routeLength="175.49" waitingTime="139.00" waitingCount="1" stopTime="0.00" timeLoss="153.48" rerouteNo="0" devices="tripinfo_VEH_107" vType="sumo_car" speedFactor="1.07" vaporized=""/>
    <tripinfo id="VEH_143" depart="192.00" departLane="-1169441386_1" departPos="5.10" departSpeed="0.00" departDelay="0.00" arrival="317.00" arrivalLane="694116204#2_2" arrivalPos="45.20" arrivalSpeed="13.46" duration="125.00" routeLength="175.49" waitingTime="98.00" waitingCount="1" stopTime="0.00" timeLoss="112.19" rerouteNo="0" devices="tripinfo_VEH_143" vType="sumo_car" speedFactor="1.16" vaporized=""/>
    <tripinfo id="VEH_205" depart="269.00" departLane="-1169441386_1" departPos="5.10" departSpeed="0.00" departDelay="0.00" arrival="319.00" arrivalLane="694116204#2_2" arrivalPos="45.20" arrivalSpeed="13.20" duration="50.00" routeLength="175.49" waitingTime="22.00" waitingCount="1" stopTime="0.00" timeLoss="37.22" rerouteNo="0" devices="tripinfo_VEH_205" vType="sumo_car" speedFactor="1.11" vaporized=""/>
    <tripinfo id="VEH_208" depart="275.00" departLane="-1169441386_1" departPos="5.10" departSpeed="0.00" departDelay="2.00" arrival="321.00" arrivalLane="694116204#2_2" arrivalPos="45.20" arrivalSpeed="13.46" duration="46.00" routeLength="175.49" waitingTime="20.00" waitingCount="1" stopTime="0.00" timeLoss="32.87" rerouteNo="0" devices="tripinfo_VEH_208" vType="sumo_car" speedFactor="1.00" vaporized=""/>
    <tripinfo id="VEH_214" depart="284.00" departLane="-1169441386_1" departPos="5.10" departSpeed="0.00" departDelay="8.00" arrival="323.00" arrivalLane="694116204#2_2" arrivalPos="45.20" arrivalSpeed="13.41" duration="39.00" routeLength="175.49" waitingTime="12.00" waitingCount="1" stopTime="0.00" timeLoss="25.51" rerouteNo="0" devices="tripinfo_VEH_214" vType="sumo_car" speedFactor="1.00" vaporized=""/>