<?xml version="1.0" encoding="UTF-8"?>

<!-- generated on 2025-06-28 17:14:24 by Eclipse SUMO sumo Version 1.19.0
<configuration xmlns:xsi="http://www.w3.org/2001/XMLSchema-instance" xsi:noNamespaceSchemaLocation="http://sumo.dlr.de/xsd/sumoConfiguration.xsd">

    <input>
        <net-file value="../model/Network.net.xml"/>
        <route-files value="../model/CarRoutes.rou.xml"/>
        <additional-files value="../model/BusStops.add.xml"/>
    </input>

    <output>
        <summary-output value="../model/logs/Log_summary.xml"/>
        <summary-output.period value="300"/>
        <tripinfo-output value="../model/logs/TripInfos.xml"/>
    </output>

    <time>
        <begin value="0"/>
        <end value="86400"/>
        <step-length value="1"/>
    </time>

    <processing>
        <ignore-junction-blocker value="0.1"/>
        <time-to-teleport value="-1"/>
        <waiting-time-memory value="6000"/>
    </processing>

    <report>
        <verbose value="true"/>
        <no-step-log value="true"/>
    </report>

    <traci_server>
        <remote-port value="55282"/>
    </traci_server>

    <gui_only>
        <quit-on-end value="true"/>
        <start value="true"/>
    </gui_only>

</configuration>
-->

<tripinfos xmlns:xsi="http://www.w3.org/2001/XMLSchema-instance" xsi:noNamespaceSchemaLocation="http://sumo.dlr.de/xsd/tripinfo_file.xsd">
    <tripinfo id="VEH_5" depart="12.00" departLane="183049957#0_1" departPos="5.10" departSpeed="0.00" departDelay="0.00" arrival="28.00" arrivalLane="331752492#2_1" arrivalPos="66.46" arrivalSpeed="13.79" duration="16.00" routeLength="112.21" waitingTime="0.00" waitingCount="0" stopTime="0.00" timeLoss="6.78" rerouteNo="0" devices="tripinfo_VEH_5" vType="sumo_car" speedFactor="1.08" vaporized=""/>
    <tripinfo id="VEH_7" depart="16.00" departLane="183049957#0_1" departPos="6.60" departSpeed="0.00" departDelay="1.00" arrival="34.00" arrivalLane="331752492#2_1" arrivalPos="66.46" arrivalSpeed="11.03" duration="18.00" routeLength="110.71" waitingTime="0.00" waitingCount="0" stopTime="0.00" timeLoss="7.16" rerouteNo="0" devices="tripinfo_VEH_7" vType="sumo_transporter" speedFactor="0.92" vaporized=""/>
    <tripinfo id="VEH_9" depart="21.00" departLane="183049957#0_1" departPos="5.10" departSpeed="0.00" departDelay="4.00" arrival="38.00" arrivalLane="331752492#2_1" arrivalPos="66.46" arrivalSpeed="11.92" duration="17.00" routeLength="112.21" waitingTime="0.00" waitingCount="0" stopTime="0.00" timeLoss="7.47" rerouteNo="0" devices="tripinfo_VEH_9" vType="sumo_car" speedFactor="0.89" vaporized=""/>
    <tripinfo id="VEH_11" depart="25.00" departLane="183049957#0_1" departPos="5.10" departSpeed="0.00" departDelay="4.00" arrival="42.00" arrivalLane="331752492#2_1" arrivalPos="66.46" arrivalSpeed="11.40" duration="17.00" routeLength="112.21" waitingTime="0.00" waitingCount="0" stopTime="0.00" timeLoss="6.18" rerouteNo="0" devices="tripinfo_VEH_11" vType="sumo_car" speedFactor="0.86" vaporized=""/>
    <tripinfo id="VEH_17" depart="29.00" departLane="183049957#0_1" departPos="5.10" departSpeed="0.00" departDelay="2.00" arrival="45.00" arrivalLane="331752492#2_1" arrivalPos="66.46" arrivalSpeed="12.70" duration="16.00" routeLength="112.21" waitingTime="0.00" waitingCount="0" stopTime="0.00" timeLoss="6.65" rerouteNo="0" devices="tripinfo_VEH_17" vType="sumo_car" speedFactor="0.93" vaporized=""/>
    <tripinfo id="VEH_20" depart="33.00" departLane="183049957#0_1" departPos="5.10" departSpeed="0.00" departDelay="0.00" arrival="49.00" arrivalLane="331752492#2_1" arrivalPos="66.46" arrivalSpeed="12.65" duration="16.00" routeLength="112.21" waitingTime="0.00" waitingCount="0" stopTime="0.00" timeLoss="6.86" rerouteNo="0" devices="tripinfo_VEH_20" vType="sumo_car" speedFactor="0.94" vaporized=""/>
    <tripinfo id="VEH_16" depart="27.00" departLane="758088375#0_1" departPos="2.30" departSpeed="0.00" departDelay="0.00" arrival="59.00" arrivalLane="25973410#1_1" arrivalPos="32.08" arrivalSpeed="8.21" duration="32.00" routeLength="78.09" waitingTime="14.00" waitingCount="1" stopTime="0.00" timeLoss="22.33" rerouteNo="0" devices="tripinfo_VEH_16" vType="sumo_motorcycle" speedFactor="0.99" vaporized=""/>
    <tripinfo id="VEH_22" depart="42.00" departLane="183049957#0_1" departPos="5.10" departSpeed="0.00" departDelay="0.00" arrival="59.00" arrivalLane="331752492#2_1" arrivalPos="66.46" arrivalSpeed="13.35" duration="17.00" routeLength="112.21" waitingTime="0.00" waitingCount="0" stopTime="0.00" timeLoss="7.93" rerouteNo="0" devices="tripinfo_VEH_22" vType="sumo_car" speedFactor="1.02" vaporized=""/>
    <tripinfo id="VEH_13" depart="23.00" departLane="-E4_1" departPos="5.10" departSpeed="0.00" departDelay="0.00" arrival="60.00" arrivalLane="-E2_1" arrivalPos="20.13" arrivalSpeed="10.80" duration="37.00" routeLength="88.22" waitingTime="18.00" waitingCount="1" stopTime="0.00" timeLoss="30.13" rerouteNo="0" devices="tripinfo_VEH_13" vType="sumo_car" speedFactor="1.03" vaporized=""/>
    <tripinfo id="VEH_26" depart="47.00" departLane="-E4_1" departPos="5.10" departSpeed="0.00" departDelay="0.00" arrival="62.00" arrivalLane="-E2_1" arrivalPos="20.13" arrivalSpeed="11.36" duration="15.00" routeLength="88.22" waitingTime="0.00" waitingCount="0" stopTime="0.00" timeLoss="6.53" rerouteNo="0" devices="tripinfo_VEH_26" vType="sumo_car" speedFactor="0.83" vaporized=""/>
    <tripinfo id="VEH_10" depart="20.00" departLane="-25973410#1_1" departPos="6.60" departSpeed="0.00" departDelay="2.00" arrival="63.00" arrivalLane="-758088375#0_1" arrivalPos="24.98" arrivalSpeed="7.83" duration="43.00" routeLength="73.76" waitingTime="22.00" waitingCount="1" stopTime="0.00" timeLoss="33.71" rerouteNo="0" devices="tripinfo_VEH_10" vType="sumo_transporter" speedFactor="0.97" vaporized=""/>
    <tripinfo id="VEH_15" depart="24.00" departLane="-183419042#1_1" departPos="5.10" departSpeed="0.00" departDelay="0.00" arrival="73.00" arrivalLane="331752492#2_1" arrivalPos="66.46" arrivalSpeed="13.37" duration="49.00" routeLength="268.79" waitingTime="17.00" waitingCount="1" stopTime="0.00" timeLoss="28.81" rerouteNo="0" devices="tripinfo_VEH_15" vType="sumo_car" speedFactor="1.12" vaporized=""/>
    <tripinfo id="VEH_40" depart="69.00" departLane="183049957#0_1" departPos="14.45" departSpeed="0.00" departDelay="0.00" arrival="89.00" arrivalLane="331752492#2_1" arrivalPos="66.46" arrivalSpeed="9.79" duration="20.00" routeLength="102.86" waitingTime="0.00" waitingCount="0" stopTime="0.00" timeLoss="8.42" rerouteNo="0" devices="tripinfo_VEH_40" vType="sumo_truck" speedFactor="1.05" vaporized=""/>
    <tripinfo id="VEH_46" depart="74.00" departLane="-1169441386_1" departPos="5.10" departSpeed="0.00" departDelay="0.00" arrival="93.00" arrivalLane="183419043#1_1" arrivalPos="11.49" arrivalSpeed="12.48" duration="19.00" routeLength="129.14" waitingTime="0.00" waitingCount="0" stopTime="0.00" timeLoss="9.07" rerouteNo="0" devices="tripinfo_VEH_46" vType="sumo_car" speedFactor="1.04" vaporized=""/>
    <tripinfo id="VEH_53" depart="85.00" departLane="183049957#0_1" departPos="5.10" departSpeed="0.00" departDelay="0.00" arrival="101.00" arrivalLane="331752492#2_1" arrivalPos="66.46" arrivalSpeed="13.73" duration="16.00" routeLength="112.21" waitingTime="0.00" waitingCount="0" stopTime="0.00" timeLoss="7.20" rerouteNo="0" devices="tripinfo_VEH_53" vType="sumo_car" speedFactor="1.17" vaporized=""/>
    <tripinfo id="VEH_6" depart="15.00" departLane="-25973410#1_1" departPos="5.10" departSpeed="0.00" departDelay="0.00" arrival="102.00" arrivalLane="694116204#2_1" arrivalPos="45.20" arrivalSpeed="13.53" duration="87.00" routeLength="221.68" waitingTime="48.00" waitingCount="2" stopTime="0.00" timeLoss="65.77" rerouteNo="0" devices="tripinfo_VEH_6" vType="sumo_car" speedFactor="1.03" vaporized=""/>
    <tripinfo id="VEH_23" depart="43.00" departLane="-25973410#1_1" departPos="5.10" departSpeed="0.00" departDelay="0.00" arrival="103.00" arrivalLane="694116204#2_2" arrivalPos="45.20" arrivalSpeed="13.29" duration="60.00" routeLength="221.68" waitingTime="19.00" waitingCount="2" stopTime="0.00" timeLoss="38.15" rerouteNo="0" devices="tripinfo_VEH_23" vType="sumo_car" speedFactor="1.01" vaporized=""/>
    <tripinfo id="VEH_35" depart="60.00" departLane="-25973410#1_1" departPos="5.10" departSpeed="0.00" departDelay="0.00" arrival="105.00" arrivalLane="694116204#2_1" arrivalPos="45.20" arrivalSpeed="13.69" duration="45.00" routeLength="221.68" waitingTime="12.00" waitingCount="1" stopTime="0.00" timeLoss="24.79" rerouteNo="0" devices="tripinfo_VEH_35" vType="sumo_car" speedFactor="1.17" vaporized=""/>
    <tripinfo id="VEH_39" depart="75.00" departLane="921020465#1_1" departPos="5.10" departSpeed="0.00" departDelay="9.00" arrival="107.00" arrivalLane="183419043#1_1" arrivalPos="11.49" arrivalSpeed="10.81" duration="32.00" routeLength="172.24" waitingTime="3.00" waitingCount="1" stopTime="0.00" timeLoss="18.46" rerouteNo="0" devices="tripinfo_VEH_39" vType="sumo_car" speedFactor="1.18" vaporized=""/>
    <tripinfo id="VEH_68" depart="107.00" departLane="183049957#0_1" departPos="5.10" departSpeed="0.00" departDelay="0.00" arrival="124.00" arrivalLane="331752492#2_1" arrivalPos="66.46" arrivalSpeed="12.05" duration="17.00" routeLength="112.21" waitingTime="0.00" waitingCount="0" stopTime="0.00" timeLoss="6.67" rerouteNo="0" devices="tripinfo_VEH_68" vType="sumo_car" speedFactor="0.91" vaporized=""/>
    <tripinfo id="VEH_75" depart="111.00" departLane="183049957#0_1" departPos="5.10" departSpeed="0.00" departDelay="0.00" arrival="127.00" arrivalLane="331752492#2_1" arrivalPos="66.46" arrivalSpeed="13.75" duration="16.00" routeLength="112.21" waitingTime="0.00" waitingCount="0" stopTime="0.00" timeLoss="6.63" rerouteNo="0" devices="tripinfo_VEH_75" vType="sumo_car" speedFactor="1.06" vaporized=""/>
    <tripinfo id="VEH_79" depart="115.00" departLane="183049957#0_1" departPos="5.10" departSpeed="0.00" departDelay="2.00" arrival="131.00" arrivalLane="331752492#2_1" arrivalPos="66.46" arrivalSpeed="13.06" duration="16.00" routeLength="112.21" waitingTime="0.00" waitingCount="0" stopTime="0.00" timeLoss="6.58" rerouteNo="0" devices="tripinfo_VEH_79" vType="sumo_car" speedFactor="0.98" vaporized=""/>
    <tripinfo id="VEH_42" depart="84.00" departLane="921020465#1_1" departPos="6.60" departSpeed="0.00" departDelay="15.00" arrival="132.00" arrivalLane="183419043#1_1" arrivalPos="11.49" arrivalSpeed="10.27" duration="48.00" routeLength="170.74" waitingTime="14.00" waitingCount="3" stopTime="0.00" timeLoss="31.81" rerouteNo="0" devices="tripinfo_VEH_42" vType="sumo_transporter" speedFactor="1.02" vaporized=""/>
    <tripinfo id="VEH_54" depart="85.00" departLane="-1169441386_1" departPos="5.10" departSpeed="0.00" departDelay="0.00" arrival="132.00" arrivalLane="694116204#2_2" arrivalPos="45.20" arrivalSpeed="13.60" duration="47.00" routeLength="175.49" waitingTime="21.00" waitingCount="1" stopTime="0.00" timeLoss="34.30" rerouteNo="0" devices="tripinfo_VEH_54" vType="sumo_car" speedFactor="1.02" vaporized=""/>
    <tripinfo id="VEH_82" depart="118.00" departLane="183049957#0_1" departPos="2.30" departSpeed="0.00" departDelay="0.00" arrival="133.00" arrivalLane="331752492#2_1" arrivalPos="66.46" arrivalSpeed="13.89" duration="15.00" routeLength="115.01" waitingTime="0.00" waitingCount="0" stopTime="0.00" timeLoss="5.65" rerouteNo="0" devices="tripinfo_VEH_82" vType="sumo_motorcycle" speedFactor="1.03" vaporized=""/>
    <tripinfo id="VEH_45" depart="100.00" departLane="921020465#1_1" departPos="5.10" departSpeed="0.00" departDelay="27.00" arrival="137.00" arrivalLane="183419043#1_1" arrivalPos="11.49" arrivalSpeed="12.64" duration="37.00" routeLength="172.24" waitingTime="14.00" waitingCount="1" stopTime="0.00" timeLoss="23.65" rerouteNo="0" devices="tripinfo_VEH_45" vType="sumo_car" speedFactor="1.04" vaporized=""/>
    <tripinfo id="VEH_3" depart="5.00" departLane="-E4_1" departPos="5.10" departSpeed="0.00" departDelay="0.00" arrival="140.00" arrivalLane="-758088375#0_1" arrivalPos="24.98" arrivalSpeed="7.35" duration="135.00" routeLength="212.81" waitingTime="97.00" waitingCount="2" stopTime="0.00" timeLoss="112.50" rerouteNo="0" devices="tripinfo_VEH_3" vType="sumo_car" speedFactor="0.94" vaporized=""/>
    <tripinfo id="VEH_24" depart="44.00" departLane="23320502_1" departPos="5.10" departSpeed="0.00" departDelay="0.00" arrival="140.00" arrivalLane="25973410#1_1" arrivalPos="32.08" arrivalSpeed="7.98" duration="96.00" routeLength="524.68" waitingTime="17.00" waitingCount="2" stopTime="0.00" timeLoss="37.60" rerouteNo="0" devices="tripinfo_VEH_24" vType="sumo_car" speedFactor="0.97" vaporized=""/>
    <tripinfo id="VEH_14" depart="23.00" departLane="921020465#1_1" departPos="5.10" departSpeed="0.00" departDelay="0.00" arrival="141.00" arrivalLane="E4_1" arrivalPos="50.96" arrivalSpeed="12.67" duration="118.00" routeLength="425.49" waitingTime="59.00" waitingCount="2" stopTime="0.00" timeLoss="80.23" rerouteNo="0" devices="tripinfo_VEH_14" vType="sumo_car" speedFactor="1.05" vaporized=""/>
    <tripinfo id="VEH_44" depart="96.00" departLane="921020465#1_1" departPos="5.10" departSpeed="0.00" departDelay="25.00" arrival="141.00" arrivalLane="183419043#1_1" arrivalPos="11.49" arrivalSpeed="12.53" duration="45.00" routeLength="172.24" waitingTime="16.00" waitingCount="2" stopTime="0.00" timeLoss="31.72" rerouteNo="0" devices="tripinfo_VEH_44" vType="sumo_car" speedFactor="1.09" vaporized=""/>
    <tripinfo id="VEH_88" depart="124.00" departLane="183049957#0_1" departPos="6.60" departSpeed="0.00" departDelay="0.00" arrival="143.00" arrivalLane="331752492#2_1" arrivalPos="66.46" arrivalSpeed="10.64" duration="19.00" routeLength="110.71" waitingTime="0.00" waitingCount="0" stopTime="0.00" timeLoss="7.91" rerouteNo="0" devices="tripinfo_VEH_88" vType="sumo_transporter" speedFactor="1.00" vaporized=""/>
    <tripinfo id="VEH_18" depart="28.00" departLane="921020465#1_1" departPos="5.10" departSpeed="0.00" departDelay="0.00" arrival="144.00" arrivalLane="E4_1" arrivalPos="50.96" arrivalSpeed="12.04" duration="116.00" routeLength="425.49" waitingTime="50.00" waitingCount="2" stopTime="0.00" timeLoss="71.84" rerouteNo="0" devices="tripinfo_VEH_18" vType="sumo_car" speedFactor="0.88" vaporized=""/>
    <tripinfo id="VEH_49" depart="123.00" departLane="921020465#1_1" departPos="5.10" departSpeed="0.00" departDelay="45.00" arrival="147.00" arrivalLane="183419043#1_1" arrivalPos="11.49" arrivalSpeed="12.08" duration="24.00" routeLength="172.24" waitingTime="2.00" waitingCount="1" stopTime="0.00" timeLoss="8.93" rerouteNo="0" devices="tripinfo_VEH_49" vType="sumo_car" speedFactor="0.90" vaporized=""/>
    <tripinfo id="VEH_55" depart="86.00" departLane="758088375#0_1" departPos="5.10" departSpeed="0.00" departDelay="0.00" arrival="150.00" arrivalLane="25973410#1_1" arrivalPos="32.08" arrivalSpeed="8.97" duration="64.00" routeLength="75.29" waitingTime="46.00" waitingCount="1" stopTime="0.00" timeLoss="54.90" rerouteNo="0" devices="tripinfo_VEH_55" vType="sumo_car" speedFactor="1.10" vaporized=""/>
    <tripinfo id="VEH_98" depart="135.00" departLane="183049957#0_1" departPos="5.10" departSpeed="0.00" departDelay="0.00" arrival="151.00" arrivalLane="331752492#2_1" arrivalPos="66.46" arrivalSpeed="13.36" duration="16.00" routeLength="112.21" waitingTime="0.00" waitingCount="0" stopTime="0.00" timeLoss="6.71" rerouteNo="0" devices="tripinfo_VEH_98" vType="sumo_car" speedFactor="1.01" vaporized=""/>
    <tripinfo id="VEH_101" depart="139.00" departLane="183049957#0_1" departPos="5.10" departSpeed="0.00" departDelay="2.00" arrival="155.00" arrivalLane="331752492#2_1" arrivalPos="66.46" arrivalSpeed="13.07" duration="16.00" routeLength="112.21" waitingTime="0.00" waitingCount="0" stopTime="0.00" timeLoss="7.58" rerouteNo="0" devices="tripinfo_VEH_101" vType="sumo_car" speedFactor="1.10" vaporized=""/>
    <tripinfo id="VEH_106" depart="144.00" departLane="758088375#0_1" departPos="5.10" departSpeed="0.00" departDelay="0.00" arrival="158.00" arrivalLane="25973410#1_1" arrivalPos="32.08" arrivalSpeed="6.85" duration="14.00" routeLength="75.29" waitingTime="0.00" waitingCount="0" stopTime="0.00" timeLoss="3.26" rerouteNo="0" devices="tripinfo_VEH_106" vType="sumo_car" speedFactor="0.89" vaporized=""/>
    <tripinfo id="VEH_100" depart="137.00" departLane="-183419042#1_1" departPos="5.10" departSpeed="0.00" departDelay="0.00" arrival="163.00" arrivalLane="331752492#2_1" arrivalPos="66.46" arrivalSpeed="13.55" duration="26.00" routeLength="268.79" waitingTime="0.00" waitingCount="0" stopTime="0.00" timeLoss="6.18" rerouteNo="0" devices="tripinfo_VEH_100" vType="sumo_car" speedFactor="1.12" vaporized=""/>
    <tripinfo id="VEH_112" depart="150.00" departLane="183049957#0_1" departPos="5.10" departSpeed="0.00" departDelay="0.00" arrival="169.00" arrivalLane="331752492#2_1" arrivalPos="66.46" arrivalSpeed="12.88" duration="19.00" routeLength="112.21" waitingTime="0.00" waitingCount="0" stopTime="0.00" timeLoss="9.79" rerouteNo="0" devices="tripinfo_VEH_112" vType="sumo_car" speedFactor="0.93" vaporized=""/>
    <tripinfo id="VEH_105" depart="144.00" departLane="-1169441386_1" departPos="5.10" departSpeed="0.00" departDelay="2.00" arrival="172.00" arrivalLane="183419043#1_1" arrivalPos="11.49" arrivalSpeed="11.34" duration="28.00" routeLength="129.14" waitingTime="3.00" waitingCount="1" stopTime="0.00" timeLoss="17.59" rerouteNo="0" devices="tripinfo_VEH_105" vType="sumo_car" speedFactor="0.95" vaporized=""/>
    <tripinfo id="VEH_130" depart="171.00" departLane="183049957#0_1" departPos="14.45" departSpeed="0.00" departDelay="0.00" arrival="191.00" arrivalLane="331752492#2_1" arrivalPos="66.46" arrivalSpeed="9.88" duration="20.00" routeLength="102.86" waitingTime="0.00" waitingCount="0" stopTime="0.00" timeLoss="8.64" rerouteNo="0" devices="tripinfo_VEH_130" vType="sumo_truck" speedFactor="1.06" vaporized=""/>
    <tripinfo id="VEH_12" depart="22.00" departLane="1162834479#1_1" departPos="0.20" departSpeed="0.00" departDelay="0.00" arrival="193.00" arrivalLane="694116204#2_1" arrivalPos="45.20" arrivalSpeed="13.81" duration="171.00" routeLength="992.43" waitingTime="39.00" waitingCount="3" stopTime="0.00" timeLoss="71.10" rerouteNo="0" devices="tripinfo_VEH_12" vType="sumo_car" speedFactor="1.09" vaporized=""/>
    <tripinfo id="VEH_136" depart="182.00" departLane="183049957#0_1" departPos="5.10" departSpeed="0.00" departDelay="0.00" arrival="197.00" arrivalLane="331752492#2_1" arrivalPos="66.46" arrivalSpeed="13.77" duration="15.00" routeLength="112.21" waitingTime="0.00" waitingCount="0" stopTime="0.00" timeLoss="6.02" rerouteNo="0" devices="tripinfo_VEH_136" vType="sumo_car" speedFactor="1.23" vaporized=""/>
    <tripinfo id="VEH_138" depart="186.00" departLane="183049957#0_1" departPos="5.10" departSpeed="0.00" departDelay="2.00" arrival="201.00" arrivalLane="331752492#2_1" arrivalPos="66.46" arrivalSpeed="13.65" duration="15.00" routeLength="112.21" waitingTime="0.00" waitingCount="0" stopTime="0.00" timeLoss="6.47" rerouteNo="0" devices="tripinfo_VEH_138" vType="sumo_car" speedFactor="1.12" vaporized=""/>
    <tripinfo id="VEH_91" depart="130.00" departLane="-E4_1" departPos="5.10" departSpeed="0.00" departDelay="3.00" arrival="203.00" arrivalLane="694116204#2_1" arrivalPos="45.20" arrivalSpeed="13.43" duration="73.00" routeLength="370.12" waitingTime="18.00" waitingCount="2" stopTime="0.00" timeLoss="38.76" rerouteNo="0" devices="tripinfo_VEH_91" vType="sumo_car" speedFactor="1.02" vaporized=""/>
    <tripinfo id="VEH_52" depart="81.00" departLane="758088375#0_1" departPos="5.10" departSpeed="0.00" departDelay="0.00" arrival="204.00" arrivalLane="-E13_1" arrivalPos="59.59" arrivalSpeed="11.50" duration="123.00" routeLength="892.87" waitingTime="0.00" waitingCount="0" stopTime="0.00" timeLoss="9.78" rerouteNo="0" devices="tripinfo_VEH_52" vType="sumo_car" speedFactor="0.85" vaporized=""/>
    <tripinfo id="VEH_4" depart="9.00" departLane="-183419042#1_1" departPos="5.10" departSpeed="0.00" departDelay="0.00" arrival="205.00" arrivalLane="-E13_1" arrivalPos="59.59" arrivalSpeed="12.88" duration="196.00" routeLength="1151.72" waitingTime="41.00" waitingCount="2" stopTime="0.00" timeLoss="78.88" rerouteNo="0" devices="tripinfo_VEH_4" vType="sumo_car" speedFactor="1.01" vaporized=""/>
    <tripinfo id="VEH_140" depart="190.00" departLane="183049957#0_1" departPos="5.10" departSpeed="0.00" departDelay="1.00" arrival="206.00" arrivalLane="331752492#2_1" arrivalPos="66.46" arrivalSpeed="13.86" duration="16.00" routeLength="112.21" waitingTime="0.00" waitingCount="0" stopTime="0.00" timeLoss="6.97" rerouteNo="0" devices="tripinfo_VEH_140" vType="sumo_car" speedFactor="1.00" vaporized=""/>
    <tripinfo id="VEH_8" depart="15.00" departLane="-183419042#1_1" departPos="5.10" departSpeed="0.00" departDelay="0.00" arrival="207.00" arrivalLane="-E13_1" arrivalPos="59.59" arrivalSpeed="13.16" duration="192.00" routeLength="1151.72" waitingTime="36.00" waitingCount="2" stopTime="0.00" timeLoss="77.74" rerouteNo="0" devices="tripinfo_VEH_8" vType="sumo_car" speedFactor="1.05" vaporized=""/>
    <tripinfo id="VEH_94" depart="138.00" departLane="-E4_1" departPos="5.10" departSpeed="0.00" departDelay="7.00" arrival="209.00" arrivalLane="694116204#2_1" arrivalPos="45.20" arrivalSpeed="10.88" duration="71.00" routeLength="370.12" waitingTime="13.00" waitingCount="1" stopTime="0.00" timeLoss="29.90" rerouteNo="0" devices="tripinfo_VEH_94" vType="sumo_car" speedFactor="0.83" vaporized=""/>
    <tripinfo id="VEH_96" depart="141.00" departLane="-E4_1" departPos="5.10" departSpeed="0.00" departDelay="8.00" arrival="211.00" arrivalLane="694116204#2_1" arrivalPos="45.20" arrivalSpeed="13.47" duration="70.00" routeLength="370.12" waitingTime="12.00" waitingCount="1" stopTime="0.00" timeLoss="36.74" rerouteNo="0" devices="tripinfo_VEH_96" vType="sumo_car" speedFactor="1.09" vaporized=""/>
    <tripinfo id="VEH_32" depart="58.00" departLane="921020465#1_1" departPos="5.10" departSpeed="0.00" departDelay="2.00" arrival="215.00" arrivalLane="E4_1" arrivalPos="50.96" arrivalSpeed="13.00" duration="157.00" routeLength="425.49" waitingTime="88.00" waitingCount="3" stopTime="0.00" timeLoss="121.46" rerouteNo="0" devices="tripinfo_VEH_32" vType="sumo_car" speedFactor="1.18" vaporized=""/>
    <tripinfo id="VEH_142" depart="196.00" departLane="183049957#0_1" departPos="14.45" departSpeed="0.00" departDelay="5.00" arrival="216.00" arrivalLane="331752492#2_1" arrivalPos="66.46" arrivalSpeed="9.94" duration="20.00" routeLength="102.86" waitingTime="0.00" waitingCount="0" stopTime="0.00" timeLoss="8.60" rerouteNo="0" devices="tripinfo_VEH_142" vType="sumo_truck" speedFactor="1.06" vaporized=""/>
    <tripinfo id="VEH_28" depart="50.00" departLane="1162834479#1_1" departPos="0.20" departSpeed="0.00" departDelay="0.00" arrival="217.00" arrivalLane="183419043#1_1" arrivalPos="11.49" arrivalSpeed="9.92" duration="167.00" routeLength="931.93" waitingTime="35.00" waitingCount="1" stopTime="0.00" timeLoss="55.12" rerouteNo="0" devices="tripinfo_VEH_28" vType="sumo_car" speedFactor="0.92" vaporized=""/>
    <tripinfo id="VEH_56" depart="87.00" departLane="758088375#0_1" departPos="5.10" departSpeed="0.00" departDelay="0.00" arrival="218.00" arrivalLane="E4_1" arrivalPos="50.96" arrivalSpeed="13.55" duration="131.00" routeLength="211.40" waitingTime="93.00" waitingCount="2" stopTime="0.00" timeLoss="110.43" rerouteNo="0" devices="tripinfo_VEH_56" vType="sumo_car" speedFactor="1.00" vaporized=""/>
    <tripinfo id="VEH_149" depart="201.00" departLane="183049957#0_1" departPos="5.10" departSpeed="0.00" departDelay="0.00" arrival="218.00" arrivalLane="331752492#2_1" arrivalPos="66.46" arrivalSpeed="13.32" duration="17.00" routeLength="112.21" waitingTime="1.00" waitingCount="1" stopTime="0.00" timeLoss="8.29" rerouteNo="0" devices="tripinfo_VEH_149" vType="sumo_car" speedFactor="1.00" vaporized=""/>
    <tripinfo id="VEH_31" depart="53.00" departLane="1162834479#1_1" departPos="0.20" departSpeed="0.00" departDelay="0.00" arrival="222.00" arrivalLane="694116204#2_1" arrivalPos="45.20" arrivalSpeed="12.24" duration="169.00" routeLength="992.43" waitingTime="33.00" waitingCount="1" stopTime="0.00" timeLoss="54.61" rerouteNo="0" devices="tripinfo_VEH_31" vType="sumo_car" speedFactor="0.93" vaporized=""/>
    <tripinfo id="VEH_43" depart="92.00" departLane="921020465#1_1" departPos="5.10" departSpeed="0.00" departDelay="21.00" arrival="226.00" arrivalLane="E4_1" arrivalPos="50.96" arrivalSpeed="12.56" duration="134.00" routeLength="425.49" waitingTime="69.00" waitingCount="2" stopTime="0.00" timeLoss="93.63" rerouteNo="0" devices="tripinfo_VEH_43" vType="sumo_car" speedFactor="0.96" vaporized=""/>
    <tripinfo id="VEH_103" depart="139.00" departLane="-1169441386_1" departPos="5.10" departSpeed="0.00" departDelay="0.00" arrival="232.00" arrivalLane="694116204#2_2" arrivalPos="45.20" arrivalSpeed="13.04" duration="93.00" routeLength="175.49" waitingTime="66.00" waitingCount="1" stopTime="0.00" timeLoss="79.31" rerouteNo="0" devices="tripinfo_VEH_103" vType="sumo_car" speedFactor="0.96" vaporized=""/>
    <tripinfo id="VEH_62" depart="99.00" departLane="E13_1" departPos="2.30" departSpeed="0.00" departDelay="0.00" arrival="234.00" arrivalLane="E4_1" arrivalPos="50.96" arrivalSpeed="13.79" duration="135.00" routeLength="792.30" waitingTime="24.00" waitingCount="2" stopTime="0.00" timeLoss="55.22" rerouteNo="0" devices="tripinfo_VEH_62" vType="sumo_motorcycle" speedFactor="1.08" vaporized=""/>
    <tripinfo id="VEH_104" depart="141.00" departLane="-1169441386_1" departPos="5.10" departSpeed="0.00" departDelay="0.00" arrival="234.00" arrivalLane="694116204#2_2" arrivalPos="45.20" arrivalSpeed="12.99" duration="93.00" routeLength="175.49" waitingTime="65.00" waitingCount="1" stopTime="0.00" timeLoss="79.26" rerouteNo="0" devices="tripinfo_VEH_104" vType="sumo_car" speedFactor="0.97" vaporized=""/>
    <tripinfo id="VEH_107" depart="148.00" departLane="-1169441386_1" departPos="5.10" departSpeed="0.00" departDelay="4.00" arrival="236.00" arrivalLane="694116204#2_2" arrivalPos="45.20" arrivalSpeed="13.18" duration="88.00" routeLength="175.49" waitingTime="60.00" waitingCount="1" stopTime="0.00" timeLoss="74.62" rerouteNo="0" devices="tripinfo_VEH_107" vType="sumo_car" speedFactor="1.07" vaporized=""/>
    <tripinfo id="VEH_84" depart="122.00" departLane="-E4_1" departPos="5.10" departSpeed="0.00" departDelay="0.00" arrival="237.00" arrivalLane="-758088375#0_1" arrivalPos="24.98" arrivalSpeed="8.07" duration="115.00" routeLength="212.81" waitingTime="76.00" waitingCount="2" stopTime="0.00" timeLoss="93.92" rerouteNo="0" devices="tripinfo_VEH_84" vType="sumo_car" speedFactor="1.02" vaporized=""/>
    <tripinfo id="VEH_143" depart="192.00" departLane="-1169441386_1" departPos="2.30" departSpeed="0.00" departDelay="0.00" arrival="237.00" arrivalLane="694116204#2_2" arrivalPos="45.20" arrivalSpeed="15.17" duration="45.00" routeLength="178.29" waitingTime="18.00" waitingCount="1" stopTime="0.00" timeLoss="33.77" rerouteNo="0" devices="tripinfo_VEH_143" vType="sumo_motorcycle" speedFactor="1.16" vaporized=""/>
    <tripinfo id="VEH_2" depart="1.00" departLane="-E4_1" departPos="5.10" departSpeed="0.00" departDelay="0.00" arrival="238.00" arrivalLane="-1162834479#1_1" arrivalPos="0.20" arrivalSpeed="9.35" duration="237.00" routeLength="746.01" waitingTime="128.00" waitingCount="3" stopTime="0.00" timeLoss="157.76" rerouteNo="0" devices="tripinfo_VEH_2" vType="sumo_car" speedFactor="1.06" vaporized=""/>
    <tripinfo id="VEH_164" depart="222.00" departLane="183049957#0_1" departPos="5.10" departSpeed="0.00" departDelay="0.00" arrival="238.00" arrivalLane="331752492#2_1" arrivalPos="66.46" arrivalSpeed="13.76" duration="16.00" routeLength="112.21" waitingTime="0.00" waitingCount="0" stopTime="0.00" timeLoss="6.55" rerouteNo="0" devices="tripinfo_VEH_164" vType="sumo_car" speedFactor="0.99" vaporized=""/>
    <tripinfo id="VEH_89" depart="126.00" departLane="-E4_1" departPos="5.10" departSpeed="0.00" departDelay="1.00" arrival="239.00" arrivalLane="-758088375#0_1" arrivalPos="24.98" arrivalSpeed="8.30" duration="113.00" routeLength="212.81" waitingTime="73.00" waitingCount="2" stopTime="0.00" timeLoss="92.19" rerouteNo="0" devices="tripinfo_VEH_89" vType="sumo_car" speedFactor="1.04" vaporized=""/>
    <tripinfo id="VEH_117" depart="204.00" departLane="921020465#1_1" departPos="5.10" departSpeed="0.00" departDelay="46.00" arrival="240.00" arrivalLane="183419043#1_1" arrivalPos="11.49" arrivalSpeed="9.70" duration="36.00" routeLength="172.24" waitingTime="8.00" waitingCount="2" stopTime="0.00" timeLoss="21.69" rerouteNo="0" devices="tripinfo_VEH_117" vType="sumo_car" speedFactor="0.92" vaporized=""/>
    <tripinfo id="VEH_93" depart="134.00" departLane="-E4_1" departPos="5.10" departSpeed="0.00" departDelay="5.00" arrival="242.00" arrivalLane="-758088375#0_1" arrivalPos="24.98" arrivalSpeed="7.21" duration="108.00" routeLength="212.81" waitingTime="67.00" waitingCount="1" stopTime="0.00" timeLoss="84.17" rerouteNo="0" devices="tripinfo_VEH_93" vType="sumo_car" speedFactor="0.89" vaporized=""/>
    <tripinfo id="VEH_170" depart="226.00" departLane="183049957#0_1" departPos="5.10" departSpeed="0.00" departDelay="1.00" arrival="242.00" arrivalLane="331752492#2_1" arrivalPos="66.46" arrivalSpeed="13.50" duration="16.00" routeLength="112.21" waitingTime="0.00" waitingCount="0" stopTime="0.00" timeLoss="7.05" rerouteNo="0" devices="tripinfo_VEH_170" vType="sumo_car" speedFactor="0.98" vaporized=""/>