<?xml version="1.0" encoding="UTF-8"?>

<!-- generated on 2025-06-28 15:41:43 by Eclipse SUMO sumo Version 1.19.0
<configuration xmlns:xsi="http://www.w3.org/2001/XMLSchema-instance" xsi:noNamespaceSchemaLocation="http://sumo.dlr.de/xsd/sumoConfiguration.xsd">

    <input>
        <net-file value="../model/Network.net.xml"/>
        <route-files value="../model/CarRoutes.rou.xml"/>
        <additional-files value="../model/BusStops.add.xml"/>
    </input>

    <output>
        <summary-output value="../model/logs/Log_summary.xml"/>
        <summary-output.period value="300"/>
        <tripinfo-output value="../model/logs/TripInfos.xml"/>
    </output>

    <time>
        <begin value="0"/>
        <end value="86400"/>
        <step-length value="1"/>
    </time>

    <processing>
        <ignore-junction-blocker value="0.1"/>
        <time-to-teleport value="-1"/>
        <waiting-time-memory value="6000"/>
    </processing>

    <report>
        <verbose value="true"/>
        <no-step-log value="true"/>
    </report>

    <traci_server>
        <remote-port value="50150"/>
    </traci_server>

    <gui_only>
        <quit-on-end value="true"/>
        <start value="true"/>
    </gui_only>

</configuration>
-->

<tripinfos xmlns:xsi="http://www.w3.org/2001/XMLSchema-instance" xsi:noNamespaceSchemaLocation="http://sumo.dlr.de/xsd/tripinfo_file.xsd">
    <tripinfo id="VEH_5" depart="12.00" departLane="183049957#0_1" departPos="5.10" departSpeed="0.00" departDelay="0.00" arrival="28.00" arrivalLane="331752492#2_1" arrivalPos="66.46" arrivalSpeed="13.19" duration="16.00" routeLength="112.21" waitingTime="0.00" waitingCount="0" stopTime="0.00" timeLoss="6.88" rerouteNo="0" devices="tripinfo_VEH_5" vType="sumo_car" speedFactor="1.08" vaporized=""/>
    <tripinfo id="VEH_7" depart="16.00" departLane="183049957#0_1" departPos="5.10" departSpeed="0.00" departDelay="1.00" arrival="33.00" arrivalLane="331752492#2_1" arrivalPos="66.46" arrivalSpeed="11.42" duration="17.00" routeLength="112.21" waitingTime="0.00" waitingCount="0" stopTime="0.00" timeLoss="6.08" rerouteNo="0" devices="tripinfo_VEH_7" vType="sumo_car" speedFactor="0.83" vaporized=""/>
    <tripinfo id="VEH_9" depart="20.00" departLane="183049957#0_1" departPos="5.10" departSpeed="0.00" departDelay="3.00" arrival="37.00" arrivalLane="331752492#2_1" arrivalPos="66.46" arrivalSpeed="11.92" duration="17.00" routeLength="112.21" waitingTime="0.00" waitingCount="0" stopTime="0.00" timeLoss="6.73" rerouteNo="0" devices="tripinfo_VEH_9" vType="sumo_car" speedFactor="0.89" vaporized=""/>
    <tripinfo id="VEH_11" depart="24.00" departLane="183049957#0_1" departPos="5.10" departSpeed="0.00" departDelay="3.00" arrival="40.00" arrivalLane="331752492#2_1" arrivalPos="66.46" arrivalSpeed="11.48" duration="16.00" routeLength="112.21" waitingTime="0.00" waitingCount="0" stopTime="0.00" timeLoss="6.03" rerouteNo="0" devices="tripinfo_VEH_11" vType="sumo_car" speedFactor="0.86" vaporized=""/>
    <tripinfo id="VEH_17" depart="28.00" departLane="183049957#0_1" departPos="5.10" departSpeed="0.00" departDelay="1.00" arrival="44.00" arrivalLane="331752492#2_1" arrivalPos="66.46" arrivalSpeed="12.38" duration="16.00" routeLength="112.21" waitingTime="0.00" waitingCount="0" stopTime="0.00" timeLoss="6.69" rerouteNo="0" devices="tripinfo_VEH_17" vType="sumo_car" speedFactor="0.93" vaporized=""/>
    <tripinfo id="VEH_20" depart="33.00" departLane="183049957#0_1" departPos="5.10" departSpeed="0.00" departDelay="0.00" arrival="49.00" arrivalLane="331752492#2_1" arrivalPos="66.46" arrivalSpeed="12.75" duration="16.00" routeLength="112.21" waitingTime="0.00" waitingCount="0" stopTime="0.00" timeLoss="6.51" rerouteNo="0" devices="tripinfo_VEH_20" vType="sumo_car" speedFactor="0.94" vaporized=""/>
    <tripinfo id="VEH_22" depart="42.00" departLane="183049957#0_1" departPos="5.10" departSpeed="0.00" departDelay="0.00" arrival="58.00" arrivalLane="331752492#2_1" arrivalPos="66.46" arrivalSpeed="13.35" duration="16.00" routeLength="112.21" waitingTime="0.00" waitingCount="0" stopTime="0.00" timeLoss="6.88" rerouteNo="0" devices="tripinfo_VEH_22" vType="sumo_car" speedFactor="1.02" vaporized=""/>
    <tripinfo id="VEH_13" depart="23.00" departLane="-E4_1" departPos="5.10" departSpeed="0.00" departDelay="0.00" arrival="60.00" arrivalLane="-E2_1" arrivalPos="20.13" arrivalSpeed="10.80" duration="37.00" routeLength="88.22" waitingTime="18.00" waitingCount="1" stopTime="0.00" timeLoss="30.13" rerouteNo="0" devices="tripinfo_VEH_13" vType="sumo_car" speedFactor="1.03" vaporized=""/>
    <tripinfo id="VEH_16" depart="27.00" departLane="758088375#0_1" departPos="5.10" departSpeed="0.00" departDelay="0.00" arrival="60.00" arrivalLane="25973410#1_1" arrivalPos="32.08" arrivalSpeed="8.22" duration="33.00" routeLength="75.29" waitingTime="15.00" waitingCount="1" stopTime="0.00" timeLoss="23.33" rerouteNo="0" devices="tripinfo_VEH_16" vType="sumo_car" speedFactor="0.99" vaporized=""/>
    <tripinfo id="VEH_10" depart="19.00" departLane="-25973410#1_1" departPos="5.10" departSpeed="0.00" departDelay="1.00" arrival="61.00" arrivalLane="-758088375#0_1" arrivalPos="24.98" arrivalSpeed="7.45" duration="42.00" routeLength="75.26" waitingTime="24.00" waitingCount="1" stopTime="0.00" timeLoss="32.04" rerouteNo="0" devices="tripinfo_VEH_10" vType="sumo_car" speedFactor="0.94" vaporized=""/>
    <tripinfo id="VEH_26" depart="47.00" departLane="-E4_1" departPos="5.10" departSpeed="0.00" departDelay="0.00" arrival="62.00" arrivalLane="-E2_1" arrivalPos="20.13" arrivalSpeed="11.36" duration="15.00" routeLength="88.22" waitingTime="0.00" waitingCount="0" stopTime="0.00" timeLoss="6.53" rerouteNo="0" devices="tripinfo_VEH_26" vType="sumo_car" speedFactor="0.83" vaporized=""/>
    <tripinfo id="VEH_15" depart="24.00" departLane="-183419042#1_1" departPos="5.10" departSpeed="0.00" departDelay="0.00" arrival="73.00" arrivalLane="331752492#2_1" arrivalPos="66.46" arrivalSpeed="13.37" duration="49.00" routeLength="268.79" waitingTime="16.00" waitingCount="1" stopTime="0.00" timeLoss="28.73" rerouteNo="0" devices="tripinfo_VEH_15" vType="sumo_car" speedFactor="1.12" vaporized=""/>
    <tripinfo id="VEH_40" depart="69.00" departLane="183049957#0_1" departPos="5.10" departSpeed="0.00" departDelay="0.00" arrival="85.00" arrivalLane="331752492#2_1" arrivalPos="66.46" arrivalSpeed="13.82" duration="16.00" routeLength="112.21" waitingTime="0.00" waitingCount="0" stopTime="0.00" timeLoss="6.84" rerouteNo="0" devices="tripinfo_VEH_40" vType="sumo_car" speedFactor="1.10" vaporized=""/>
    <tripinfo id="VEH_46" depart="74.00" departLane="-1169441386_1" departPos="5.10" departSpeed="0.00" departDelay="0.00" arrival="93.00" arrivalLane="183419043#1_1" arrivalPos="11.49" arrivalSpeed="12.48" duration="19.00" routeLength="129.14" waitingTime="0.00" waitingCount="0" stopTime="0.00" timeLoss="9.07" rerouteNo="0" devices="tripinfo_VEH_46" vType="sumo_car" speedFactor="1.04" vaporized=""/>
    <tripinfo id="VEH_53" depart="85.00" departLane="183049957#0_1" departPos="5.10" departSpeed="0.00" departDelay="0.00" arrival="99.00" arrivalLane="331752492#2_1" arrivalPos="66.46" arrivalSpeed="13.81" duration="14.00" routeLength="112.21" waitingTime="0.00" waitingCount="0" stopTime="0.00" timeLoss="5.53" rerouteNo="0" devices="tripinfo_VEH_53" vType="sumo_car" speedFactor="1.17" vaporized=""/>
    <tripinfo id="VEH_6" depart="15.00" departLane="-25973410#1_1" departPos="5.10" departSpeed="0.00" departDelay="0.00" arrival="102.00" arrivalLane="694116204#2_1" arrivalPos="45.20" arrivalSpeed="13.88" duration="87.00" routeLength="221.68" waitingTime="49.00" waitingCount="2" stopTime="0.00" timeLoss="65.68" rerouteNo="0" devices="tripinfo_VEH_6" vType="sumo_car" speedFactor="1.03" vaporized=""/>
    <tripinfo id="VEH_23" depart="43.00" departLane="-25973410#1_1" departPos="5.10" departSpeed="0.00" departDelay="0.00" arrival="103.00" arrivalLane="694116204#2_1" arrivalPos="45.20" arrivalSpeed="13.53" duration="60.00" routeLength="221.68" waitingTime="20.00" waitingCount="2" stopTime="0.00" timeLoss="37.96" rerouteNo="0" devices="tripinfo_VEH_23" vType="sumo_car" speedFactor="1.01" vaporized=""/>
    <tripinfo id="VEH_35" depart="60.00" departLane="-25973410#1_1" departPos="5.10" departSpeed="0.00" departDelay="0.00" arrival="105.00" arrivalLane="694116204#2_1" arrivalPos="45.20" arrivalSpeed="13.55" duration="45.00" routeLength="221.68" waitingTime="12.00" waitingCount="1" stopTime="0.00" timeLoss="24.84" rerouteNo="0" devices="tripinfo_VEH_35" vType="sumo_car" speedFactor="1.17" vaporized=""/>
    <tripinfo id="VEH_68" depart="107.00" departLane="183049957#0_1" departPos="6.60" departSpeed="0.00" departDelay="0.00" arrival="125.00" arrivalLane="331752492#2_1" arrivalPos="66.46" arrivalSpeed="11.08" duration="18.00" routeLength="110.71" waitingTime="0.00" waitingCount="0" stopTime="0.00" timeLoss="6.91" rerouteNo="0" devices="tripinfo_VEH_68" vType="sumo_transporter" speedFactor="0.95" vaporized=""/>
    <tripinfo id="VEH_75" depart="112.00" departLane="183049957#0_1" departPos="5.10" departSpeed="0.00" departDelay="1.00" arrival="128.00" arrivalLane="331752492#2_1" arrivalPos="66.46" arrivalSpeed="13.23" duration="16.00" routeLength="112.21" waitingTime="0.00" waitingCount="0" stopTime="0.00" timeLoss="7.03" rerouteNo="0" devices="tripinfo_VEH_75" vType="sumo_car" speedFactor="1.06" vaporized=""/>
    <tripinfo id="VEH_79" depart="116.00" departLane="183049957#0_1" departPos="5.10" departSpeed="0.00" departDelay="3.00" arrival="132.00" arrivalLane="331752492#2_1" arrivalPos="66.46" arrivalSpeed="13.06" duration="16.00" routeLength="112.21" waitingTime="0.00" waitingCount="0" stopTime="0.00" timeLoss="6.67" rerouteNo="0" devices="tripinfo_VEH_79" vType="sumo_car" speedFactor="0.98" vaporized=""/>
    <tripinfo id="VEH_54" depart="85.00" departLane="-1169441386_1" departPos="5.10" departSpeed="0.00" departDelay="0.00" arrival="135.00" arrivalLane="694116204#2_2" arrivalPos="45.20" arrivalSpeed="13.36" duration="50.00" routeLength="175.49" waitingTime="21.00" waitingCount="1" stopTime="0.00" timeLoss="36.91" rerouteNo="0" devices="tripinfo_VEH_54" vType="sumo_car" speedFactor="1.02" vaporized=""/>
    <tripinfo id="VEH_82" depart="120.00" departLane="183049957#0_1" departPos="5.10" departSpeed="0.00" departDelay="2.00" arrival="136.00" arrivalLane="331752492#2_1" arrivalPos="66.46" arrivalSpeed="13.53" duration="16.00" routeLength="112.21" waitingTime="0.00" waitingCount="0" stopTime="0.00" timeLoss="6.97" rerouteNo="0" devices="tripinfo_VEH_82" vType="sumo_car" speedFactor="1.03" vaporized=""/>
    <tripinfo id="VEH_39" depart="78.00" departLane="921020465#1_1" departPos="5.10" departSpeed="0.00" departDelay="12.00" arrival="137.00" arrivalLane="183419043#1_1" arrivalPos="11.49" arrivalSpeed="10.81" duration="59.00" routeLength="172.24" waitingTime="29.00" waitingCount="2" stopTime="0.00" timeLoss="45.92" rerouteNo="0" devices="tripinfo_VEH_39" vType="sumo_car" speedFactor="1.18" vaporized=""/>
    <tripinfo id="VEH_24" depart="44.00" departLane="23320502_1" departPos="5.10" departSpeed="0.00" departDelay="0.00" arrival="139.00" arrivalLane="25973410#1_1" arrivalPos="32.08" arrivalSpeed="8.09" duration="95.00" routeLength="524.68" waitingTime="17.00" waitingCount="2" stopTime="0.00" timeLoss="37.40" rerouteNo="0" devices="tripinfo_VEH_24" vType="sumo_car" speedFactor="0.97" vaporized=""/>
    <tripinfo id="VEH_42" depart="86.00" departLane="921020465#1_1" departPos="5.10" departSpeed="0.00" departDelay="17.00" arrival="139.00" arrivalLane="183419043#1_1" arrivalPos="11.49" arrivalSpeed="11.10" duration="53.00" routeLength="172.24" waitingTime="21.00" waitingCount="1" stopTime="0.00" timeLoss="39.53" rerouteNo="0" devices="tripinfo_VEH_42" vType="sumo_car" speedFactor="1.03" vaporized=""/>
    <tripinfo id="VEH_3" depart="5.00" departLane="-E4_1" departPos="5.10" departSpeed="0.00" departDelay="0.00" arrival="140.00" arrivalLane="-758088375#0_1" arrivalPos="24.98" arrivalSpeed="7.35" duration="135.00" routeLength="212.81" waitingTime="97.00" waitingCount="2" stopTime="0.00" timeLoss="112.53" rerouteNo="0" devices="tripinfo_VEH_3" vType="sumo_car" speedFactor="0.94" vaporized=""/>
    <tripinfo id="VEH_88" depart="124.00" departLane="183049957#0_1" departPos="5.10" departSpeed="0.00" departDelay="0.00" arrival="140.00" arrivalLane="331752492#2_1" arrivalPos="66.46" arrivalSpeed="13.85" duration="16.00" routeLength="112.21" waitingTime="0.00" waitingCount="0" stopTime="0.00" timeLoss="6.71" rerouteNo="0" devices="tripinfo_VEH_88" vType="sumo_car" speedFactor="1.00" vaporized=""/>
    <tripinfo id="VEH_14" depart="23.00" departLane="921020465#1_1" departPos="5.10" departSpeed="0.00" departDelay="0.00" arrival="141.00" arrivalLane="E4_1" arrivalPos="50.96" arrivalSpeed="12.36" duration="118.00" routeLength="425.49" waitingTime="59.00" waitingCount="2" stopTime="0.00" timeLoss="80.36" rerouteNo="0" devices="tripinfo_VEH_14" vType="sumo_car" speedFactor="1.05" vaporized=""/>
    <tripinfo id="VEH_45" depart="124.00" departLane="921020465#1_1" departPos="5.10" departSpeed="0.00" departDelay="51.00" arrival="144.00" arrivalLane="183419043#1_1" arrivalPos="11.49" arrivalSpeed="12.22" duration="20.00" routeLength="172.24" waitingTime="0.00" waitingCount="0" stopTime="0.00" timeLoss="6.78" rerouteNo="0" devices="tripinfo_VEH_45" vType="sumo_car" speedFactor="1.04" vaporized=""/>
    <tripinfo id="VEH_18" depart="28.00" departLane="921020465#1_1" departPos="6.60" departSpeed="0.00" departDelay="0.00" arrival="146.00" arrivalLane="E4_1" arrivalPos="50.96" arrivalSpeed="10.72" duration="118.00" routeLength="423.99" waitingTime="48.00" waitingCount="2" stopTime="0.00" timeLoss="73.54" rerouteNo="0" devices="tripinfo_VEH_18" vType="sumo_transporter" speedFactor="0.94" vaporized=""/>
    <tripinfo id="VEH_44" depart="122.00" departLane="921020465#1_1" departPos="5.10" departSpeed="0.00" departDelay="51.00" arrival="147.00" arrivalLane="183419043#1_1" arrivalPos="11.49" arrivalSpeed="13.38" duration="25.00" routeLength="172.24" waitingTime="1.00" waitingCount="1" stopTime="0.00" timeLoss="11.74" rerouteNo="0" devices="tripinfo_VEH_44" vType="sumo_car" speedFactor="1.09" vaporized=""/>
    <tripinfo id="VEH_55" depart="86.00" departLane="758088375#0_1" departPos="5.10" departSpeed="0.00" departDelay="0.00" arrival="149.00" arrivalLane="25973410#1_1" arrivalPos="32.08" arrivalSpeed="8.52" duration="63.00" routeLength="75.29" waitingTime="46.00" waitingCount="1" stopTime="0.00" timeLoss="54.68" rerouteNo="0" devices="tripinfo_VEH_55" vType="sumo_car" speedFactor="1.10" vaporized=""/>
    <tripinfo id="VEH_98" depart="135.00" departLane="183049957#0_1" departPos="5.10" departSpeed="0.00" departDelay="0.00" arrival="151.00" arrivalLane="331752492#2_1" arrivalPos="66.46" arrivalSpeed="13.64" duration="16.00" routeLength="112.21" waitingTime="0.00" waitingCount="0" stopTime="0.00" timeLoss="6.94" rerouteNo="0" devices="tripinfo_VEH_98" vType="sumo_car" speedFactor="1.01" vaporized=""/>
    <tripinfo id="VEH_101" depart="139.00" departLane="183049957#0_1" departPos="5.10" departSpeed="0.00" departDelay="2.00" arrival="155.00" arrivalLane="331752492#2_1" arrivalPos="66.46" arrivalSpeed="13.43" duration="16.00" routeLength="112.21" waitingTime="0.00" waitingCount="0" stopTime="0.00" timeLoss="6.86" rerouteNo="0" devices="tripinfo_VEH_101" vType="sumo_car" speedFactor="1.10" vaporized=""/>
    <tripinfo id="VEH_106" depart="144.00" departLane="758088375#0_1" departPos="5.10" departSpeed="0.00" departDelay="0.00" arrival="158.00" arrivalLane="25973410#1_1" arrivalPos="32.08" arrivalSpeed="7.41" duration="14.00" routeLength="75.29" waitingTime="0.00" waitingCount="0" stopTime="0.00" timeLoss="3.47" rerouteNo="0" devices="tripinfo_VEH_106" vType="sumo_car" speedFactor="0.89" vaporized=""/>
    <tripinfo id="VEH_100" depart="137.00" departLane="-183419042#1_1" departPos="5.10" departSpeed="0.00" departDelay="0.00" arrival="164.00" arrivalLane="331752492#2_1" arrivalPos="66.46" arrivalSpeed="13.52" duration="27.00" routeLength="268.79" waitingTime="0.00" waitingCount="0" stopTime="0.00" timeLoss="6.75" rerouteNo="0" devices="tripinfo_VEH_100" vType="sumo_car" speedFactor="1.12" vaporized=""/>
    <tripinfo id="VEH_112" depart="150.00" departLane="183049957#0_1" departPos="5.10" departSpeed="0.00" departDelay="0.00" arrival="169.00" arrivalLane="331752492#2_1" arrivalPos="66.46" arrivalSpeed="12.70" duration="19.00" routeLength="112.21" waitingTime="0.00" waitingCount="0" stopTime="0.00" timeLoss="9.25" rerouteNo="0" devices="tripinfo_VEH_112" vType="sumo_car" speedFactor="0.93" vaporized=""/>
    <tripinfo id="VEH_49" depart="133.00" departLane="921020465#1_1" departPos="5.10" departSpeed="0.00" departDelay="55.00" arrival="176.00" arrivalLane="183419043#1_1" arrivalPos="11.49" arrivalSpeed="11.49" duration="43.00" routeLength="172.24" waitingTime="18.00" waitingCount="2" stopTime="0.00" timeLoss="27.54" rerouteNo="0" devices="tripinfo_VEH_49" vType="sumo_car" speedFactor="0.90" vaporized=""/>
    <tripinfo id="VEH_105" depart="144.00" departLane="-1169441386_1" departPos="5.10" departSpeed="0.00" departDelay="2.00" arrival="179.00" arrivalLane="183419043#1_1" arrivalPos="11.49" arrivalSpeed="10.96" duration="35.00" routeLength="129.14" waitingTime="11.00" waitingCount="1" stopTime="0.00" timeLoss="24.83" rerouteNo="0" devices="tripinfo_VEH_105" vType="sumo_car" speedFactor="0.95" vaporized=""/>
    <tripinfo id="VEH_130" depart="171.00" departLane="183049957#0_1" departPos="5.10" departSpeed="0.00" departDelay="0.00" arrival="186.00" arrivalLane="331752492#2_1" arrivalPos="66.46" arrivalSpeed="13.19" duration="15.00" routeLength="112.21" waitingTime="0.00" waitingCount="0" stopTime="0.00" timeLoss="6.49" rerouteNo="0" devices="tripinfo_VEH_130" vType="sumo_car" speedFactor="1.12" vaporized=""/>
    <tripinfo id="VEH_4" depart="9.00" departLane="-183419042#1_1" departPos="5.10" departSpeed="0.00" departDelay="0.00" arrival="193.00" arrivalLane="-E13_1" arrivalPos="59.59" arrivalSpeed="13.22" duration="184.00" routeLength="1151.72" waitingTime="41.00" waitingCount="2" stopTime="0.00" timeLoss="66.27" rerouteNo="0" devices="tripinfo_VEH_4" vType="sumo_car" speedFactor="1.01" vaporized=""/>
    <tripinfo id="VEH_12" depart="22.00" departLane="1162834479#1_1" departPos="0.20" departSpeed="0.00" departDelay="0.00" arrival="193.00" arrivalLane="694116204#2_1" arrivalPos="45.20" arrivalSpeed="13.39" duration="171.00" routeLength="992.43" waitingTime="39.00" waitingCount="2" stopTime="0.00" timeLoss="71.74" rerouteNo="0" devices="tripinfo_VEH_12" vType="sumo_car" speedFactor="1.09" vaporized=""/>
    <tripinfo id="VEH_8" depart="15.00" departLane="-183419042#1_1" departPos="5.10" departSpeed="0.00" departDelay="0.00" arrival="195.00" arrivalLane="-E13_1" arrivalPos="59.59" arrivalSpeed="13.47" duration="180.00" routeLength="1151.72" waitingTime="36.00" waitingCount="2" stopTime="0.00" timeLoss="65.14" rerouteNo="0" devices="tripinfo_VEH_8" vType="sumo_car" speedFactor="1.05" vaporized=""/>
    <tripinfo id="VEH_136" depart="182.00" departLane="183049957#0_1" departPos="2.30" departSpeed="0.00" departDelay="0.00" arrival="196.00" arrivalLane="331752492#2_1" arrivalPos="66.46" arrivalSpeed="16.44" duration="14.00" routeLength="115.01" waitingTime="0.00" waitingCount="0" stopTime="0.00" timeLoss="6.19" rerouteNo="0" devices="tripinfo_VEH_136" vType="sumo_motorcycle" speedFactor="1.23" vaporized=""/>
    <tripinfo id="VEH_138" depart="185.00" departLane="183049957#0_1" departPos="5.10" departSpeed="0.00" departDelay="1.00" arrival="201.00" arrivalLane="331752492#2_1" arrivalPos="66.46" arrivalSpeed="13.17" duration="16.00" routeLength="112.21" waitingTime="0.00" waitingCount="0" stopTime="0.00" timeLoss="6.86" rerouteNo="0" devices="tripinfo_VEH_138" vType="sumo_car" speedFactor="1.12" vaporized=""/>
    <tripinfo id="VEH_91" depart="130.00" departLane="-E4_1" departPos="5.10" departSpeed="0.00" departDelay="3.00" arrival="204.00" arrivalLane="694116204#2_1" arrivalPos="45.20" arrivalSpeed="13.49" duration="74.00" routeLength="370.12" waitingTime="17.00" waitingCount="2" stopTime="0.00" timeLoss="39.38" rerouteNo="0" devices="tripinfo_VEH_91" vType="sumo_car" speedFactor="1.02" vaporized=""/>
    <tripinfo id="VEH_140" depart="189.00" departLane="183049957#0_1" departPos="5.10" departSpeed="0.00" departDelay="0.00" arrival="205.00" arrivalLane="331752492#2_1" arrivalPos="66.46" arrivalSpeed="13.26" duration="16.00" routeLength="112.21" waitingTime="0.00" waitingCount="0" stopTime="0.00" timeLoss="6.74" rerouteNo="0" devices="tripinfo_VEH_140" vType="sumo_car" speedFactor="1.00" vaporized=""/>
    <tripinfo id="VEH_142" depart="193.00" departLane="183049957#0_1" departPos="5.10" departSpeed="0.00" departDelay="2.00" arrival="209.00" arrivalLane="331752492#2_1" arrivalPos="66.46" arrivalSpeed="13.32" duration="16.00" routeLength="112.21" waitingTime="0.00" waitingCount="0" stopTime="0.00" timeLoss="6.73" rerouteNo="0" devices="tripinfo_VEH_142" vType="sumo_car" speedFactor="1.11" vaporized=""/>
    <tripinfo id="VEH_94" depart="138.00" departLane="-E4_1" departPos="5.10" departSpeed="0.00" departDelay="7.00" arrival="210.00" arrivalLane="694116204#2_1" arrivalPos="45.20" arrivalSpeed="10.99" duration="72.00" routeLength="370.12" waitingTime="13.00" waitingCount="1" stopTime="0.00" timeLoss="30.18" rerouteNo="0" devices="tripinfo_VEH_94" vType="sumo_car" speedFactor="0.83" vaporized=""/>
    <tripinfo id="VEH_96" depart="142.00" departLane="-E4_1" departPos="5.10" departSpeed="0.00" departDelay="9.00" arrival="211.00" arrivalLane="694116204#2_1" arrivalPos="45.20" arrivalSpeed="12.12" duration="69.00" routeLength="370.12" waitingTime="11.00" waitingCount="1" stopTime="0.00" timeLoss="36.33" rerouteNo="0" devices="tripinfo_VEH_96" vType="sumo_car" speedFactor="1.09" vaporized=""/>
    <tripinfo id="VEH_149" depart="201.00" departLane="183049957#0_1" departPos="5.10" departSpeed="0.00" departDelay="0.00" arrival="217.00" arrivalLane="331752492#2_1" arrivalPos="66.46" arrivalSpeed="13.70" duration="16.00" routeLength="112.21" waitingTime="0.00" waitingCount="0" stopTime="0.00" timeLoss="6.94" rerouteNo="0" devices="tripinfo_VEH_149" vType="sumo_car" speedFactor="1.00" vaporized=""/>
    <tripinfo id="VEH_28" depart="50.00" departLane="1162834479#1_1" departPos="0.20" departSpeed="0.00" departDelay="0.00" arrival="218.00" arrivalLane="183419043#1_1" arrivalPos="11.49" arrivalSpeed="9.09" duration="168.00" routeLength="931.93" waitingTime="38.00" waitingCount="1" stopTime="0.00" timeLoss="58.37" rerouteNo="0" devices="tripinfo_VEH_28" vType="sumo_transporter" speedFactor="0.96" vaporized=""/>
    <tripinfo id="VEH_56" depart="87.00" departLane="758088375#0_1" departPos="5.10" departSpeed="0.00" departDelay="0.00" arrival="225.00" arrivalLane="E4_1" arrivalPos="50.96" arrivalSpeed="12.21" duration="138.00" routeLength="211.40" waitingTime="100.00" waitingCount="2" stopTime="0.00" timeLoss="118.05" rerouteNo="0" devices="tripinfo_VEH_56" vType="sumo_car" speedFactor="1.00" vaporized=""/>
    <tripinfo id="VEH_103" depart="139.00" departLane="-1169441386_1" departPos="5.10" departSpeed="0.00" departDelay="0.00" arrival="226.00" arrivalLane="694116204#2_2" arrivalPos="45.20" arrivalSpeed="12.61" duration="87.00" routeLength="175.49" waitingTime="60.00" waitingCount="1" stopTime="0.00" timeLoss="73.73" rerouteNo="0" devices="tripinfo_VEH_103" vType="sumo_car" speedFactor="0.96" vaporized=""/>
    <tripinfo id="VEH_32" depart="56.00" departLane="921020465#1_1" departPos="5.10" departSpeed="0.00" departDelay="0.00" arrival="227.00" arrivalLane="E4_1" arrivalPos="50.96" arrivalSpeed="12.77" duration="171.00" routeLength="425.49" waitingTime="95.00" waitingCount="3" stopTime="0.00" timeLoss="135.42" rerouteNo="0" devices="tripinfo_VEH_32" vType="sumo_car" speedFactor="1.18" vaporized=""/>
    <tripinfo id="VEH_104" depart="141.00" departLane="-1169441386_1" departPos="5.10" departSpeed="0.00" departDelay="0.00" arrival="228.00" arrivalLane="694116204#2_2" arrivalPos="45.20" arrivalSpeed="12.85" duration="87.00" routeLength="175.49" waitingTime="60.00" waitingCount="1" stopTime="0.00" timeLoss="73.80" rerouteNo="0" devices="tripinfo_VEH_104" vType="sumo_car" speedFactor="0.97" vaporized=""/>
    <tripinfo id="VEH_110" depart="155.00" departLane="-1169441386_1" departPos="15.10" departSpeed="0.00" departDelay="8.00" arrival="229.00" arrivalLane="183419043#1_1" arrivalPos="11.49" arrivalSpeed="8.08" duration="74.00" routeLength="119.14" waitingTime="38.00" waitingCount="2" stopTime="0.00" timeLoss="61.62" rerouteNo="0" devices="tripinfo_VEH_110" vType="sumo_truck" speedFactor="1.03" vaporized=""/>
    <tripinfo id="VEH_107" depart="148.00" departLane="-1169441386_1" departPos="5.10" departSpeed="0.00" departDelay="4.00" arrival="230.00" arrivalLane="694116204#2_2" arrivalPos="45.20" arrivalSpeed="13.64" duration="82.00" routeLength="175.49" waitingTime="54.00" waitingCount="1" stopTime="0.00" timeLoss="68.82" rerouteNo="0" devices="tripinfo_VEH_107" vType="sumo_car" speedFactor="1.07" vaporized=""/>
    <tripinfo id="VEH_143" depart="192.00" departLane="-1169441386_1" departPos="5.10" departSpeed="0.00" departDelay="0.00" arrival="232.00" arrivalLane="694116204#2_2" arrivalPos="45.20" arrivalSpeed="13.21" duration="40.00" routeLength="175.49" waitingTime="14.00" waitingCount="1" stopTime="0.00" timeLoss="27.05" rerouteNo="0" devices="tripinfo_VEH_143" vType="sumo_car" speedFactor="1.16" vaporized=""/>
    <tripinfo id="VEH_2" depart="1.00" departLane="-E4_1" departPos="5.10" departSpeed="0.00" departDelay="0.00" arrival="233.00" arrivalLane="-1162834479#1_1" arrivalPos="0.20" arrivalSpeed="11.02" duration="232.00" routeLength="746.01" waitingTime="128.00" waitingCount="3" stopTime="0.00" timeLoss="152.89" rerouteNo="0" devices="tripinfo_VEH_2" vType="sumo_car" speedFactor="1.06" vaporized=""/>
    <tripinfo id="VEH_84" depart="122.00" departLane="-E4_1" departPos="5.10" departSpeed="0.00" departDelay="0.00" arrival="233.00" arrivalLane="-758088375#0_1" arrivalPos="24.98" arrivalSpeed="8.07" duration="111.00" routeLength="212.81" waitingTime="72.00" waitingCount="2" stopTime="0.00" timeLoss="90.00" rerouteNo="0" devices="tripinfo_VEH_84" vType="sumo_car" speedFactor="1.02" vaporized=""/>
    <tripinfo id="VEH_144" depart="194.00" departLane="-1169441386_1" departPos="5.10" departSpeed="0.00" departDelay="2.00" arrival="233.00" arrivalLane="183419043#1_1" arrivalPos="11.49" arrivalSpeed="12.02" duration="39.00" routeLength="129.14" waitingTime="11.00" waitingCount="1" stopTime="0.00" timeLoss="28.84" rerouteNo="0" devices="tripinfo_VEH_144" vType="sumo_car" speedFactor="0.94" vaporized=""/>
    <tripinfo id="VEH_89" depart="126.00" departLane="-E4_1" departPos="5.10" departSpeed="0.00" departDelay="1.00" arrival="235.00" arrivalLane="-758088375#0_1" arrivalPos="24.98" arrivalSpeed="8.47" duration="109.00" routeLength="212.81" waitingTime="69.00" waitingCount="2" stopTime="0.00" timeLoss="88.47" rerouteNo="0" devices="tripinfo_VEH_89" vType="sumo_car" speedFactor="1.04" vaporized=""/>
    <tripinfo id="VEH_62" depart="99.00" departLane="E13_1" departPos="5.10" departSpeed="0.00" departDelay="0.00" arrival="237.00" arrivalLane="E4_1" arrivalPos="50.96" arrivalSpeed="11.72" duration="138.00" routeLength="789.50" waitingTime="24.00" waitingCount="2" stopTime="0.00" timeLoss="57.70" rerouteNo="0" devices="tripinfo_VEH_62" vType="sumo_car" speedFactor="1.08" vaporized=""/>
    <tripinfo id="VEH_93" depart="134.00" departLane="-E4_1" departPos="5.10" departSpeed="0.00" departDelay="5.00" arrival="238.00" arrivalLane="-758088375#0_1" arrivalPos="24.98" arrivalSpeed="6.94" duration="104.00" routeLength="212.81" waitingTime="61.00" waitingCount="1" stopTime="0.00" timeLoss="80.77" rerouteNo="0" devices="tripinfo_VEH_93" vType="sumo_car" speedFactor="0.89" vaporized=""/>
    <tripinfo id="VEH_164" depart="222.00" departLane="183049957#0_1" departPos="5.10" departSpeed="0.00" departDelay="0.00" arrival="238.00" arrivalLane="331752492#2_1" arrivalPos="66.46" arrivalSpeed="13.42" duration="16.00" routeLength="112.21" waitingTime="0.00" waitingCount="0" stopTime="0.00" timeLoss="6.76" rerouteNo="0" devices="tripinfo_VEH_164" vType="sumo_car" speedFactor="0.99" vaporized=""/>
    <tripinfo id="VEH_170" depart="228.00" departLane="183049957#0_1" departPos="14.45" departSpeed="0.00" departDelay="3.00" arrival="248.00" arrivalLane="331752492#2_1" arrivalPos="66.46" arrivalSpeed="9.69" duration="20.00" routeLength="102.86" waitingTime="0.00" waitingCount="0" stopTime="0.00" timeLoss="8.87" rerouteNo="0" devices="tripinfo_VEH_170" vType="sumo_truck" speedFactor="0.99" vaporized=""/>
    <tripinfo id="VEH_171" depart="234.00" departLane="183049957#0_1" departPos="5.10" departSpeed="0.00" departDelay="8.00" arrival="251.00" arrivalLane="331752492#2_1" arrivalPos="66.46" arrivalSpeed="12.78" duration="17.00" routeLength="112.21" waitingTime="0.00" waitingCount="0" stopTime="0.00" timeLoss="7.00" rerouteNo="0" devices="tripinfo_VEH_171" vType="sumo_car" speedFactor="0.94" vaporized=""/>
    <tripinfo id="VEH_156" depart="211.00" departLane="-183419042#1_1" departPos="5.10" departSpeed="0.00" departDelay="3.00" arrival="252.00" arrivalLane="331752492#2_1" arrivalPos="66.46" arrivalSpeed="13.82" duration="41.00" routeLength="268.79" waitingTime="6.00" waitingCount="1" stopTime="0.00" timeLoss="21.60" rerouteNo="0" devices="tripinfo_VEH_156" vType="sumo_car" speedFactor="1.06" vaporized=""/>