<?xml version="1.0" encoding="UTF-8"?>

<!-- generated on 2025-06-28 15:41:07 by Eclipse SUMO sumo Version 1.19.0
<configuration xmlns:xsi="http://www.w3.org/2001/XMLSchema-instance" xsi:noNamespaceSchemaLocation="http://sumo.dlr.de/xsd/sumoConfiguration.xsd">

    <input>
        <net-file value="../model/Network.net.xml"/>
        <route-files value="../model/CarRoutes.rou.xml"/>
        <additional-files value="../model/BusStops.add.xml"/>
    </input>

    <output>
        <summary-output value="../model/logs/Log_summary.xml"/>
        <summary-output.period value="300"/>
        <tripinfo-output value="../model/logs/TripInfos.xml"/>
    </output>

    <time>
        <begin value="0"/>
        <end value="86400"/>
        <step-length value="1"/>
    </time>

    <processing>
        <ignore-junction-blocker value="0.1"/>
        <time-to-teleport value="-1"/>
        <waiting-time-memory value="6000"/>
    </processing>

    <report>
        <verbose value="true"/>
        <no-step-log value="true"/>
    </report>

    <traci_server>
        <remote-port value="50132"/>
    </traci_server>

    <gui_only>
        <quit-on-end value="true"/>
        <start value="true"/>
    </gui_only>

</configuration>
-->

<tripinfos xmlns:xsi="http://www.w3.org/2001/XMLSchema-instance" xsi:noNamespaceSchemaLocation="http://sumo.dlr.de/xsd/tripinfo_file.xsd">
    <tripinfo id="VEH_5" depart="12.00" departLane="183049957#0_1" departPos="5.10" departSpeed="0.00" departDelay="0.00" arrival="28.00" arrivalLane="331752492#2_1" arrivalPos="66.46" arrivalSpeed="13.32" duration="16.00" routeLength="112.21" waitingTime="0.00" waitingCount="0" stopTime="0.00" timeLoss="6.63" rerouteNo="0" devices="tripinfo_VEH_5" vType="sumo_car" speedFactor="1.08" vaporized=""/>
    <tripinfo id="VEH_7" depart="15.00" departLane="183049957#0_1" departPos="2.30" departSpeed="0.00" departDelay="0.00" arrival="32.00" arrivalLane="331752492#2_1" arrivalPos="66.46" arrivalSpeed="11.38" duration="17.00" routeLength="115.01" waitingTime="0.00" waitingCount="0" stopTime="0.00" timeLoss="5.75" rerouteNo="0" devices="tripinfo_VEH_7" vType="sumo_motorcycle" speedFactor="0.83" vaporized=""/>
    <tripinfo id="VEH_9" depart="18.00" departLane="183049957#0_1" departPos="5.10" departSpeed="0.00" departDelay="1.00" arrival="35.00" arrivalLane="331752492#2_1" arrivalPos="66.46" arrivalSpeed="12.19" duration="17.00" routeLength="112.21" waitingTime="0.00" waitingCount="0" stopTime="0.00" timeLoss="6.57" rerouteNo="0" devices="tripinfo_VEH_9" vType="sumo_car" speedFactor="0.89" vaporized=""/>
    <tripinfo id="VEH_11" depart="22.00" departLane="183049957#0_1" departPos="5.10" departSpeed="0.00" departDelay="1.00" arrival="39.00" arrivalLane="331752492#2_1" arrivalPos="66.46" arrivalSpeed="11.25" duration="17.00" routeLength="112.21" waitingTime="0.00" waitingCount="0" stopTime="0.00" timeLoss="6.46" rerouteNo="0" devices="tripinfo_VEH_11" vType="sumo_car" speedFactor="0.86" vaporized=""/>
    <tripinfo id="VEH_17" depart="27.00" departLane="183049957#0_1" departPos="5.10" departSpeed="0.00" departDelay="0.00" arrival="43.00" arrivalLane="331752492#2_1" arrivalPos="66.46" arrivalSpeed="12.38" duration="16.00" routeLength="112.21" waitingTime="0.00" waitingCount="0" stopTime="0.00" timeLoss="6.41" rerouteNo="0" devices="tripinfo_VEH_17" vType="sumo_car" speedFactor="0.93" vaporized=""/>
    <tripinfo id="VEH_20" depart="33.00" departLane="183049957#0_1" departPos="5.10" departSpeed="0.00" departDelay="0.00" arrival="49.00" arrivalLane="331752492#2_1" arrivalPos="66.46" arrivalSpeed="12.75" duration="16.00" routeLength="112.21" waitingTime="0.00" waitingCount="0" stopTime="0.00" timeLoss="6.76" rerouteNo="0" devices="tripinfo_VEH_20" vType="sumo_car" speedFactor="0.94" vaporized=""/>
    <tripinfo id="VEH_22" depart="42.00" departLane="183049957#0_1" departPos="2.30" departSpeed="0.00" departDelay="0.00" arrival="57.00" arrivalLane="331752492#2_1" arrivalPos="66.46" arrivalSpeed="13.42" duration="15.00" routeLength="115.01" waitingTime="0.00" waitingCount="0" stopTime="0.00" timeLoss="5.54" rerouteNo="0" devices="tripinfo_VEH_22" vType="sumo_motorcycle" speedFactor="1.02" vaporized=""/>
    <tripinfo id="VEH_16" depart="27.00" departLane="758088375#0_1" departPos="2.30" departSpeed="0.00" departDelay="0.00" arrival="59.00" arrivalLane="25973410#1_1" arrivalPos="32.08" arrivalSpeed="8.21" duration="32.00" routeLength="78.09" waitingTime="16.00" waitingCount="1" stopTime="0.00" timeLoss="22.14" rerouteNo="0" devices="tripinfo_VEH_16" vType="sumo_motorcycle" speedFactor="0.99" vaporized=""/>
    <tripinfo id="VEH_13" depart="23.00" departLane="-E4_1" departPos="5.10" departSpeed="0.00" departDelay="0.00" arrival="60.00" arrivalLane="-E2_1" arrivalPos="20.13" arrivalSpeed="10.74" duration="37.00" routeLength="88.22" waitingTime="18.00" waitingCount="1" stopTime="0.00" timeLoss="30.11" rerouteNo="0" devices="tripinfo_VEH_13" vType="sumo_car" speedFactor="1.03" vaporized=""/>
    <tripinfo id="VEH_10" depart="19.00" departLane="-25973410#1_1" departPos="5.10" departSpeed="0.00" departDelay="1.00" arrival="61.00" arrivalLane="-758088375#0_1" arrivalPos="24.98" arrivalSpeed="7.45" duration="42.00" routeLength="75.26" waitingTime="24.00" waitingCount="1" stopTime="0.00" timeLoss="32.04" rerouteNo="0" devices="tripinfo_VEH_10" vType="sumo_car" speedFactor="0.94" vaporized=""/>
    <tripinfo id="VEH_26" depart="47.00" departLane="-E4_1" departPos="5.10" departSpeed="0.00" departDelay="0.00" arrival="62.00" arrivalLane="-E2_1" arrivalPos="20.13" arrivalSpeed="10.96" duration="15.00" routeLength="88.22" waitingTime="0.00" waitingCount="0" stopTime="0.00" timeLoss="6.60" rerouteNo="0" devices="tripinfo_VEH_26" vType="sumo_car" speedFactor="0.83" vaporized=""/>
    <tripinfo id="VEH_15" depart="24.00" departLane="-183419042#1_1" departPos="5.10" departSpeed="0.00" departDelay="0.00" arrival="73.00" arrivalLane="331752492#2_1" arrivalPos="66.46" arrivalSpeed="13.37" duration="49.00" routeLength="268.79" waitingTime="17.00" waitingCount="1" stopTime="0.00" timeLoss="28.73" rerouteNo="0" devices="tripinfo_VEH_15" vType="sumo_car" speedFactor="1.12" vaporized=""/>
    <tripinfo id="VEH_40" depart="69.00" departLane="183049957#0_1" departPos="14.45" departSpeed="0.00" departDelay="0.00" arrival="88.00" arrivalLane="331752492#2_1" arrivalPos="66.46" arrivalSpeed="9.79" duration="19.00" routeLength="102.86" waitingTime="0.00" waitingCount="0" stopTime="0.00" timeLoss="8.15" rerouteNo="0" devices="tripinfo_VEH_40" vType="sumo_truck" speedFactor="1.05" vaporized=""/>
    <tripinfo id="VEH_46" depart="74.00" departLane="-1169441386_1" departPos="6.60" departSpeed="0.00" departDelay="0.00" arrival="95.00" arrivalLane="183419043#1_1" arrivalPos="11.49" arrivalSpeed="10.20" duration="21.00" routeLength="127.64" waitingTime="0.00" waitingCount="0" stopTime="0.00" timeLoss="9.43" rerouteNo="0" devices="tripinfo_VEH_46" vType="sumo_transporter" speedFactor="1.02" vaporized=""/>
    <tripinfo id="VEH_53" depart="85.00" departLane="183049957#0_1" departPos="5.10" departSpeed="0.00" departDelay="0.00" arrival="101.00" arrivalLane="331752492#2_1" arrivalPos="66.46" arrivalSpeed="13.73" duration="16.00" routeLength="112.21" waitingTime="0.00" waitingCount="0" stopTime="0.00" timeLoss="7.09" rerouteNo="0" devices="tripinfo_VEH_53" vType="sumo_car" speedFactor="1.17" vaporized=""/>
    <tripinfo id="VEH_6" depart="15.00" departLane="-25973410#1_1" departPos="5.10" departSpeed="0.00" departDelay="0.00" arrival="104.00" arrivalLane="694116204#2_1" arrivalPos="45.20" arrivalSpeed="13.84" duration="89.00" routeLength="221.68" waitingTime="49.00" waitingCount="2" stopTime="0.00" timeLoss="67.28" rerouteNo="0" devices="tripinfo_VEH_6" vType="sumo_car" speedFactor="1.03" vaporized=""/>
    <tripinfo id="VEH_23" depart="43.00" departLane="-25973410#1_1" departPos="5.10" departSpeed="0.00" departDelay="0.00" arrival="105.00" arrivalLane="694116204#2_1" arrivalPos="45.20" arrivalSpeed="13.55" duration="62.00" routeLength="221.68" waitingTime="20.00" waitingCount="2" stopTime="0.00" timeLoss="39.96" rerouteNo="0" devices="tripinfo_VEH_23" vType="sumo_car" speedFactor="1.01" vaporized=""/>
    <tripinfo id="VEH_35" depart="60.00" departLane="-25973410#1_1" departPos="6.60" departSpeed="0.00" departDelay="0.00" arrival="109.00" arrivalLane="694116204#2_1" arrivalPos="45.20" arrivalSpeed="10.99" duration="49.00" routeLength="220.18" waitingTime="11.00" waitingCount="1" stopTime="0.00" timeLoss="26.19" rerouteNo="0" devices="tripinfo_VEH_35" vType="sumo_transporter" speedFactor="1.09" vaporized=""/>
    <tripinfo id="VEH_68" depart="107.00" departLane="183049957#0_1" departPos="5.10" departSpeed="0.00" departDelay="0.00" arrival="124.00" arrivalLane="331752492#2_1" arrivalPos="66.46" arrivalSpeed="12.42" duration="17.00" routeLength="112.21" waitingTime="0.00" waitingCount="0" stopTime="0.00" timeLoss="6.68" rerouteNo="0" devices="tripinfo_VEH_68" vType="sumo_car" speedFactor="0.91" vaporized=""/>
    <tripinfo id="VEH_75" depart="111.00" departLane="183049957#0_1" departPos="5.10" departSpeed="0.00" departDelay="0.00" arrival="127.00" arrivalLane="331752492#2_1" arrivalPos="66.46" arrivalSpeed="13.59" duration="16.00" routeLength="112.21" waitingTime="0.00" waitingCount="0" stopTime="0.00" timeLoss="6.54" rerouteNo="0" devices="tripinfo_VEH_75" vType="sumo_car" speedFactor="1.06" vaporized=""/>
    <tripinfo id="VEH_79" depart="115.00" departLane="183049957#0_1" departPos="5.10" departSpeed="0.00" departDelay="2.00" arrival="131.00" arrivalLane="331752492#2_1" arrivalPos="66.46" arrivalSpeed="13.57" duration="16.00" routeLength="112.21" waitingTime="0.00" waitingCount="0" stopTime="0.00" timeLoss="6.57" rerouteNo="0" devices="tripinfo_VEH_79" vType="sumo_car" speedFactor="0.98" vaporized=""/>
    <tripinfo id="VEH_54" depart="85.00" departLane="-1169441386_1" departPos="5.10" departSpeed="0.00" departDelay="0.00" arrival="133.00" arrivalLane="694116204#2_2" arrivalPos="45.20" arrivalSpeed="13.36" duration="48.00" routeLength="175.49" waitingTime="21.00" waitingCount="1" stopTime="0.00" timeLoss="34.59" rerouteNo="0" devices="tripinfo_VEH_54" vType="sumo_car" speedFactor="1.02" vaporized=""/>
    <tripinfo id="VEH_39" depart="79.00" departLane="921020465#1_1" departPos="5.10" departSpeed="0.00" departDelay="13.00" arrival="134.00" arrivalLane="183419043#1_1" arrivalPos="11.49" arrivalSpeed="10.02" duration="55.00" routeLength="172.24" waitingTime="24.00" waitingCount="2" stopTime="0.00" timeLoss="41.84" rerouteNo="0" devices="tripinfo_VEH_39" vType="sumo_car" speedFactor="1.18" vaporized=""/>
    <tripinfo id="VEH_82" depart="119.00" departLane="183049957#0_1" departPos="5.10" departSpeed="0.00" departDelay="1.00" arrival="135.00" arrivalLane="331752492#2_1" arrivalPos="66.46" arrivalSpeed="13.53" duration="16.00" routeLength="112.21" waitingTime="0.00" waitingCount="0" stopTime="0.00" timeLoss="6.95" rerouteNo="0" devices="tripinfo_VEH_82" vType="sumo_car" speedFactor="1.03" vaporized=""/>
    <tripinfo id="VEH_42" depart="87.00" departLane="921020465#1_1" departPos="2.30" departSpeed="0.00" departDelay="18.00" arrival="136.00" arrivalLane="183419043#1_1" arrivalPos="11.49" arrivalSpeed="12.03" duration="49.00" routeLength="175.04" waitingTime="16.00" waitingCount="3" stopTime="0.00" timeLoss="35.27" rerouteNo="0" devices="tripinfo_VEH_42" vType="sumo_motorcycle" speedFactor="1.03" vaporized=""/>
    <tripinfo id="VEH_44" depart="94.00" departLane="921020465#1_1" departPos="5.10" departSpeed="0.00" departDelay="23.00" arrival="138.00" arrivalLane="183419043#1_1" arrivalPos="11.49" arrivalSpeed="12.24" duration="44.00" routeLength="172.24" waitingTime="17.00" waitingCount="2" stopTime="0.00" timeLoss="30.53" rerouteNo="0" devices="tripinfo_VEH_44" vType="sumo_car" speedFactor="1.09" vaporized=""/>
    <tripinfo id="VEH_24" depart="44.00" departLane="23320502_1" departPos="5.10" departSpeed="0.00" departDelay="0.00" arrival="139.00" arrivalLane="25973410#1_1" arrivalPos="32.08" arrivalSpeed="8.09" duration="95.00" routeLength="524.68" waitingTime="17.00" waitingCount="1" stopTime="0.00" timeLoss="37.26" rerouteNo="0" devices="tripinfo_VEH_24" vType="sumo_car" speedFactor="0.97" vaporized=""/>
    <tripinfo id="VEH_3" depart="5.00" departLane="-E4_1" departPos="5.10" departSpeed="0.00" departDelay="0.00" arrival="140.00" arrivalLane="-758088375#0_1" arrivalPos="24.98" arrivalSpeed="7.35" duration="135.00" routeLength="212.81" waitingTime="96.00" waitingCount="2" stopTime="0.00" timeLoss="112.40" rerouteNo="0" devices="tripinfo_VEH_3" vType="sumo_car" speedFactor="0.94" vaporized=""/>
    <tripinfo id="VEH_88" depart="124.00" departLane="183049957#0_1" departPos="5.10" departSpeed="0.00" departDelay="0.00" arrival="140.00" arrivalLane="331752492#2_1" arrivalPos="66.46" arrivalSpeed="13.46" duration="16.00" routeLength="112.21" waitingTime="0.00" waitingCount="0" stopTime="0.00" timeLoss="6.77" rerouteNo="0" devices="tripinfo_VEH_88" vType="sumo_car" speedFactor="1.00" vaporized=""/>
    <tripinfo id="VEH_14" depart="23.00" departLane="921020465#1_1" departPos="5.10" departSpeed="0.00" departDelay="0.00" arrival="142.00" arrivalLane="E4_1" arrivalPos="50.96" arrivalSpeed="13.00" duration="119.00" routeLength="425.49" waitingTime="59.00" waitingCount="2" stopTime="0.00" timeLoss="81.05" rerouteNo="0" devices="tripinfo_VEH_14" vType="sumo_car" speedFactor="1.05" vaporized=""/>
    <tripinfo id="VEH_18" depart="28.00" departLane="921020465#1_1" departPos="5.10" departSpeed="0.00" departDelay="0.00" arrival="144.00" arrivalLane="E4_1" arrivalPos="50.96" arrivalSpeed="12.09" duration="116.00" routeLength="425.49" waitingTime="50.00" waitingCount="2" stopTime="0.00" timeLoss="71.89" rerouteNo="0" devices="tripinfo_VEH_18" vType="sumo_car" speedFactor="0.88" vaporized=""/>
    <tripinfo id="VEH_45" depart="98.00" departLane="921020465#1_1" departPos="5.10" departSpeed="0.00" departDelay="25.00" arrival="144.00" arrivalLane="183419043#1_1" arrivalPos="11.49" arrivalSpeed="12.45" duration="46.00" routeLength="172.24" waitingTime="18.00" waitingCount="2" stopTime="0.00" timeLoss="32.69" rerouteNo="0" devices="tripinfo_VEH_45" vType="sumo_car" speedFactor="1.04" vaporized=""/>
    <tripinfo id="VEH_55" depart="86.00" departLane="758088375#0_1" departPos="5.10" departSpeed="0.00" departDelay="0.00" arrival="149.00" arrivalLane="25973410#1_1" arrivalPos="32.08" arrivalSpeed="8.52" duration="63.00" routeLength="75.29" waitingTime="46.00" waitingCount="1" stopTime="0.00" timeLoss="54.59" rerouteNo="0" devices="tripinfo_VEH_55" vType="sumo_car" speedFactor="1.10" vaporized=""/>
    <tripinfo id="VEH_98" depart="135.00" departLane="183049957#0_1" departPos="5.10" departSpeed="0.00" departDelay="0.00" arrival="151.00" arrivalLane="331752492#2_1" arrivalPos="66.46" arrivalSpeed="13.36" duration="16.00" routeLength="112.21" waitingTime="0.00" waitingCount="0" stopTime="0.00" timeLoss="6.67" rerouteNo="0" devices="tripinfo_VEH_98" vType="sumo_car" speedFactor="1.01" vaporized=""/>
    <tripinfo id="VEH_101" depart="139.00" departLane="183049957#0_1" departPos="5.10" departSpeed="0.00" departDelay="2.00" arrival="155.00" arrivalLane="331752492#2_1" arrivalPos="66.46" arrivalSpeed="13.22" duration="16.00" routeLength="112.21" waitingTime="0.00" waitingCount="0" stopTime="0.00" timeLoss="6.79" rerouteNo="0" devices="tripinfo_VEH_101" vType="sumo_car" speedFactor="1.10" vaporized=""/>
    <tripinfo id="VEH_106" depart="144.00" departLane="758088375#0_1" departPos="5.10" departSpeed="0.00" departDelay="0.00" arrival="158.00" arrivalLane="25973410#1_1" arrivalPos="32.08" arrivalSpeed="7.41" duration="14.00" routeLength="75.29" waitingTime="0.00" waitingCount="0" stopTime="0.00" timeLoss="3.12" rerouteNo="0" devices="tripinfo_VEH_106" vType="sumo_car" speedFactor="0.89" vaporized=""/>
    <tripinfo id="VEH_100" depart="137.00" departLane="-183419042#1_1" departPos="5.10" departSpeed="0.00" departDelay="0.00" arrival="163.00" arrivalLane="331752492#2_1" arrivalPos="66.46" arrivalSpeed="13.39" duration="26.00" routeLength="268.79" waitingTime="0.00" waitingCount="0" stopTime="0.00" timeLoss="5.72" rerouteNo="0" devices="tripinfo_VEH_100" vType="sumo_car" speedFactor="1.12" vaporized=""/>
    <tripinfo id="VEH_112" depart="150.00" departLane="183049957#0_1" departPos="2.30" departSpeed="0.00" departDelay="0.00" arrival="166.00" arrivalLane="331752492#2_1" arrivalPos="66.46" arrivalSpeed="12.41" duration="16.00" routeLength="115.01" waitingTime="0.00" waitingCount="0" stopTime="0.00" timeLoss="5.96" rerouteNo="0" devices="tripinfo_VEH_112" vType="sumo_motorcycle" speedFactor="0.93" vaporized=""/>
    <tripinfo id="VEH_49" depart="127.00" departLane="921020465#1_1" departPos="15.10" departSpeed="0.00" departDelay="49.00" arrival="175.00" arrivalLane="183419043#1_1" arrivalPos="11.49" arrivalSpeed="8.02" duration="48.00" routeLength="162.24" waitingTime="5.00" waitingCount="2" stopTime="0.00" timeLoss="30.94" rerouteNo="0" devices="tripinfo_VEH_49" vType="sumo_truck" speedFactor="0.95" vaporized=""/>
    <tripinfo id="VEH_105" depart="144.00" departLane="-1169441386_1" departPos="15.10" departSpeed="0.00" departDelay="2.00" arrival="183.00" arrivalLane="183419043#1_1" arrivalPos="11.49" arrivalSpeed="7.18" duration="39.00" routeLength="119.14" waitingTime="8.00" waitingCount="1" stopTime="0.00" timeLoss="27.07" rerouteNo="0" devices="tripinfo_VEH_105" vType="sumo_truck" speedFactor="0.98" vaporized=""/>
    <tripinfo id="VEH_130" depart="171.00" departLane="183049957#0_1" departPos="5.10" departSpeed="0.00" departDelay="0.00" arrival="187.00" arrivalLane="331752492#2_1" arrivalPos="66.46" arrivalSpeed="13.67" duration="16.00" routeLength="112.21" waitingTime="0.00" waitingCount="0" stopTime="0.00" timeLoss="6.59" rerouteNo="0" devices="tripinfo_VEH_130" vType="sumo_car" speedFactor="1.12" vaporized=""/>
    <tripinfo id="VEH_4" depart="9.00" departLane="-183419042#1_1" departPos="5.10" departSpeed="0.00" departDelay="0.00" arrival="192.00" arrivalLane="-E13_1" arrivalPos="59.59" arrivalSpeed="13.21" duration="183.00" routeLength="1151.72" waitingTime="39.00" waitingCount="2" stopTime="0.00" timeLoss="65.88" rerouteNo="0" devices="tripinfo_VEH_4" vType="sumo_car" speedFactor="1.01" vaporized=""/>
    <tripinfo id="VEH_12" depart="22.00" departLane="1162834479#1_1" departPos="0.20" departSpeed="0.00" departDelay="0.00" arrival="192.00" arrivalLane="694116204#2_1" arrivalPos="45.20" arrivalSpeed="13.56" duration="170.00" routeLength="992.43" waitingTime="40.00" waitingCount="2" stopTime="0.00" timeLoss="71.10" rerouteNo="0" devices="tripinfo_VEH_12" vType="sumo_car" speedFactor="1.09" vaporized=""/>
    <tripinfo id="VEH_8" depart="15.00" departLane="-183419042#1_1" departPos="5.10" departSpeed="0.00" departDelay="0.00" arrival="194.00" arrivalLane="-E13_1" arrivalPos="59.59" arrivalSpeed="13.52" duration="179.00" routeLength="1151.72" waitingTime="36.00" waitingCount="2" stopTime="0.00" timeLoss="64.62" rerouteNo="0" devices="tripinfo_VEH_8" vType="sumo_car" speedFactor="1.05" vaporized=""/>
    <tripinfo id="VEH_136" depart="182.00" departLane="183049957#0_1" departPos="5.10" departSpeed="0.00" departDelay="0.00" arrival="197.00" arrivalLane="331752492#2_1" arrivalPos="66.46" arrivalSpeed="13.18" duration="15.00" routeLength="112.21" waitingTime="0.00" waitingCount="0" stopTime="0.00" timeLoss="6.20" rerouteNo="0" devices="tripinfo_VEH_136" vType="sumo_car" speedFactor="1.23" vaporized=""/>
    <tripinfo id="VEH_138" depart="186.00" departLane="183049957#0_1" departPos="5.10" departSpeed="0.00" departDelay="2.00" arrival="201.00" arrivalLane="331752492#2_1" arrivalPos="66.46" arrivalSpeed="13.65" duration="15.00" routeLength="112.21" waitingTime="0.00" waitingCount="0" stopTime="0.00" timeLoss="5.73" rerouteNo="0" devices="tripinfo_VEH_138" vType="sumo_car" speedFactor="1.12" vaporized=""/>
    <tripinfo id="VEH_140" depart="189.00" departLane="183049957#0_1" departPos="5.10" departSpeed="0.00" departDelay="0.00" arrival="205.00" arrivalLane="331752492#2_1" arrivalPos="66.46" arrivalSpeed="13.33" duration="16.00" routeLength="112.21" waitingTime="0.00" waitingCount="0" stopTime="0.00" timeLoss="6.63" rerouteNo="0" devices="tripinfo_VEH_140" vType="sumo_car" speedFactor="1.00" vaporized=""/>
    <tripinfo id="VEH_142" depart="193.00" departLane="183049957#0_1" departPos="5.10" departSpeed="0.00" departDelay="2.00" arrival="208.00" arrivalLane="331752492#2_1" arrivalPos="66.46" arrivalSpeed="13.35" duration="15.00" routeLength="112.21" waitingTime="0.00" waitingCount="0" stopTime="0.00" timeLoss="6.37" rerouteNo="0" devices="tripinfo_VEH_142" vType="sumo_car" speedFactor="1.11" vaporized=""/>
    <tripinfo id="VEH_91" depart="131.00" departLane="-E4_1" departPos="15.10" departSpeed="0.00" departDelay="4.00" arrival="209.00" arrivalLane="694116204#2_1" arrivalPos="45.20" arrivalSpeed="9.96" duration="78.00" routeLength="360.12" waitingTime="15.00" waitingCount="1" stopTime="0.00" timeLoss="38.91" rerouteNo="0" devices="tripinfo_VEH_91" vType="sumo_truck" speedFactor="1.01" vaporized=""/>
    <tripinfo id="VEH_94" depart="141.00" departLane="-E4_1" departPos="5.10" departSpeed="0.00" departDelay="10.00" arrival="214.00" arrivalLane="694116204#2_1" arrivalPos="45.20" arrivalSpeed="11.18" duration="73.00" routeLength="370.12" waitingTime="11.00" waitingCount="1" stopTime="0.00" timeLoss="31.41" rerouteNo="0" devices="tripinfo_VEH_94" vType="sumo_car" speedFactor="0.83" vaporized=""/>
    <tripinfo id="VEH_96" depart="145.00" departLane="-E4_1" departPos="5.10" departSpeed="0.00" departDelay="12.00" arrival="215.00" arrivalLane="694116204#2_1" arrivalPos="45.20" arrivalSpeed="11.93" duration="70.00" routeLength="370.12" waitingTime="10.00" waitingCount="1" stopTime="0.00" timeLoss="37.39" rerouteNo="0" devices="tripinfo_VEH_96" vType="sumo_car" speedFactor="1.09" vaporized=""/>
    <tripinfo id="VEH_149" depart="201.00" departLane="183049957#0_1" departPos="2.30" departSpeed="0.00" departDelay="0.00" arrival="216.00" arrivalLane="331752492#2_1" arrivalPos="66.46" arrivalSpeed="13.55" duration="15.00" routeLength="115.01" waitingTime="0.00" waitingCount="0" stopTime="0.00" timeLoss="5.60" rerouteNo="0" devices="tripinfo_VEH_149" vType="sumo_motorcycle" speedFactor="1.00" vaporized=""/>
    <tripinfo id="VEH_28" depart="50.00" departLane="1162834479#1_1" departPos="0.20" departSpeed="0.00" departDelay="0.00" arrival="217.00" arrivalLane="183419043#1_1" arrivalPos="11.49" arrivalSpeed="11.34" duration="167.00" routeLength="931.93" waitingTime="35.00" waitingCount="1" stopTime="0.00" timeLoss="54.63" rerouteNo="0" devices="tripinfo_VEH_28" vType="sumo_car" speedFactor="0.92" vaporized=""/>
    <tripinfo id="VEH_32" depart="58.00" departLane="921020465#1_1" departPos="5.10" departSpeed="0.00" departDelay="2.00" arrival="224.00" arrivalLane="E4_1" arrivalPos="50.96" arrivalSpeed="12.79" duration="166.00" routeLength="425.49" waitingTime="97.00" waitingCount="2" stopTime="0.00" timeLoss="130.23" rerouteNo="0" devices="tripinfo_VEH_32" vType="sumo_car" speedFactor="1.18" vaporized=""/>
    <tripinfo id="VEH_56" depart="87.00" departLane="758088375#0_1" departPos="5.10" departSpeed="0.00" departDelay="0.00" arrival="225.00" arrivalLane="E4_1" arrivalPos="50.96" arrivalSpeed="12.20" duration="138.00" routeLength="211.40" waitingTime="101.00" waitingCount="2" stopTime="0.00" timeLoss="118.51" rerouteNo="0" devices="tripinfo_VEH_56" vType="sumo_car" speedFactor="1.00" vaporized=""/>
    <tripinfo id="VEH_110" depart="155.00" departLane="-1169441386_1" departPos="2.30" departSpeed="0.00" departDelay="8.00" arrival="225.00" arrivalLane="183419043#1_1" arrivalPos="11.49" arrivalSpeed="13.86" duration="70.00" routeLength="131.94" waitingTime="39.00" waitingCount="2" stopTime="0.00" timeLoss="60.68" rerouteNo="0" devices="tripinfo_VEH_110" vType="sumo_motorcycle" speedFactor="1.06" vaporized=""/>
    <tripinfo id="VEH_103" depart="139.00" departLane="-1169441386_1" departPos="5.10" departSpeed="0.00" departDelay="0.00" arrival="226.00" arrivalLane="694116204#2_2" arrivalPos="45.20" arrivalSpeed="13.19" duration="87.00" routeLength="175.49" waitingTime="61.00" waitingCount="1" stopTime="0.00" timeLoss="73.53" rerouteNo="0" devices="tripinfo_VEH_103" vType="sumo_car" speedFactor="0.96" vaporized=""/>
    <tripinfo id="VEH_43" depart="90.00" departLane="921020465#1_1" departPos="5.10" departSpeed="0.00" departDelay="19.00" arrival="227.00" arrivalLane="E4_1" arrivalPos="50.96" arrivalSpeed="12.67" duration="137.00" routeLength="425.49" waitingTime="71.00" waitingCount="4" stopTime="0.00" timeLoss="96.60" rerouteNo="0" devices="tripinfo_VEH_43" vType="sumo_car" speedFactor="0.96" vaporized=""/>
    <tripinfo id="VEH_104" depart="141.00" departLane="-1169441386_1" departPos="5.10" departSpeed="0.00" departDelay="0.00" arrival="228.00" arrivalLane="694116204#2_2" arrivalPos="45.20" arrivalSpeed="13.20" duration="87.00" routeLength="175.49" waitingTime="57.00" waitingCount="1" stopTime="0.00" timeLoss="73.87" rerouteNo="0" devices="tripinfo_VEH_104" vType="sumo_car" speedFactor="0.97" vaporized=""/>
    <tripinfo id="VEH_107" depart="150.00" departLane="-1169441386_1" departPos="5.10" departSpeed="0.00" departDelay="6.00" arrival="231.00" arrivalLane="694116204#2_2" arrivalPos="45.20" arrivalSpeed="13.43" duration="81.00" routeLength="175.49" waitingTime="53.00" waitingCount="1" stopTime="0.00" timeLoss="67.50" rerouteNo="0" devices="tripinfo_VEH_107" vType="sumo_car" speedFactor="1.07" vaporized=""/>
    <tripinfo id="VEH_144" depart="194.00" departLane="-1169441386_1" departPos="5.10" departSpeed="0.00" departDelay="2.00" arrival="231.00" arrivalLane="183419043#1_1" arrivalPos="11.49" arrivalSpeed="12.28" duration="37.00" routeLength="129.14" waitingTime="10.00" waitingCount="1" stopTime="0.00" timeLoss="26.54" rerouteNo="0" devices="tripinfo_VEH_144" vType="sumo_car" speedFactor="0.94" vaporized=""/>
    <tripinfo id="VEH_143" depart="192.00" departLane="-1169441386_1" departPos="5.10" departSpeed="0.00" departDelay="0.00" arrival="232.00" arrivalLane="694116204#2_2" arrivalPos="45.20" arrivalSpeed="13.18" duration="40.00" routeLength="175.49" waitingTime="13.00" waitingCount="1" stopTime="0.00" timeLoss="27.19" rerouteNo="0" devices="tripinfo_VEH_143" vType="sumo_car" speedFactor="1.16" vaporized=""/>
    <tripinfo id="VEH_2" depart="1.00" departLane="-E4_1" departPos="5.10" departSpeed="0.00" departDelay="0.00" arrival="233.00" arrivalLane="-1162834479#1_1" arrivalPos="0.20" arrivalSpeed="10.77" duration="232.00" routeLength="746.01" waitingTime="126.00" waitingCount="3" stopTime="0.00" timeLoss="152.94" rerouteNo="0" devices="tripinfo_VEH_2" vType="sumo_car" speedFactor="1.06" vaporized=""/>
    <tripinfo id="VEH_84" depart="122.00" departLane="-E4_1" departPos="5.10" departSpeed="0.00" departDelay="0.00" arrival="233.00" arrivalLane="-758088375#0_1" arrivalPos="24.98" arrivalSpeed="7.96" duration="111.00" routeLength="212.81" waitingTime="71.00" waitingCount="2" stopTime="0.00" timeLoss="89.70" rerouteNo="0" devices="tripinfo_VEH_84" vType="sumo_car" speedFactor="1.02" vaporized=""/>
    <tripinfo id="VEH_89" depart="125.00" departLane="-E4_1" departPos="2.30" departSpeed="0.00" departDelay="0.00" arrival="235.00" arrivalLane="-758088375#0_1" arrivalPos="24.98" arrivalSpeed="8.23" duration="110.00" routeLength="215.61" waitingTime="69.00" waitingCount="2" stopTime="0.00" timeLoss="89.27" rerouteNo="0" devices="tripinfo_VEH_89" vType="sumo_motorcycle" speedFactor="1.04" vaporized=""/>
    <tripinfo id="VEH_93" depart="137.00" departLane="-E4_1" departPos="5.10" departSpeed="0.00" departDelay="8.00" arrival="237.00" arrivalLane="-758088375#0_1" arrivalPos="24.98" arrivalSpeed="7.08" duration="100.00" routeLength="212.81" waitingTime="57.00" waitingCount="1" stopTime="0.00" timeLoss="76.18" rerouteNo="0" devices="tripinfo_VEH_93" vType="sumo_car" speedFactor="0.89" vaporized=""/>
    <tripinfo id="VEH_62" depart="99.00" departLane="E13_1" departPos="5.10" departSpeed="0.00" departDelay="0.00" arrival="238.00" arrivalLane="E4_1" arrivalPos="50.96" arrivalSpeed="12.36" duration="139.00" routeLength="789.50" waitingTime="28.00" waitingCount="2" stopTime="0.00" timeLoss="58.29" rerouteNo="0" devices="tripinfo_VEH_62" vType="sumo_car" speedFactor="1.08" vaporized=""/>
    <tripinfo id="VEH_164" depart="222.00" departLane="183049957#0_1" departPos="5.10" departSpeed="0.00" departDelay="0.00" arrival="238.00" arrivalLane="331752492#2_1" arrivalPos="66.46" arrivalSpeed="13.54" duration="16.00" routeLength="112.21" waitingTime="0.00" waitingCount="0" stopTime="0.00" timeLoss="7.14" rerouteNo="0" devices="tripinfo_VEH_164" vType="sumo_car" speedFactor="0.99" vaporized=""/>
    <tripinfo id="VEH_117" depart="216.00" departLane="921020465#1_1" departPos="5.10" departSpeed="0.00" departDelay="58.00" arrival="242.00" arrivalLane="183419043#1_1" arrivalPos="11.49" arrivalSpeed="11.53" duration="26.00" routeLength="172.24" waitingTime="2.00" waitingCount="1" stopTime="0.00" timeLoss="10.65" rerouteNo="0" devices="tripinfo_VEH_117" vType="sumo_car" speedFactor="0.92" vaporized=""/>
    <tripinfo id="VEH_170" depart="226.00" departLane="183049957#0_1" departPos="5.10" departSpeed="0.00" departDelay="1.00" arrival="242.00" arrivalLane="331752492#2_1" arrivalPos="66.46" arrivalSpeed="13.64" duration="16.00" routeLength="112.21" waitingTime="0.00" waitingCount="0" stopTime="0.00" timeLoss="6.79" rerouteNo="0" devices="tripinfo_VEH_170" vType="sumo_car" speedFactor="0.98" vaporized=""/>