<?xml version="1.0" encoding="UTF-8"?>

<!-- generated on 2025-06-28 15:04:59 by Eclipse SUMO sumo Version 1.19.0
<configuration xmlns:xsi="http://www.w3.org/2001/XMLSchema-instance" xsi:noNamespaceSchemaLocation="http://sumo.dlr.de/xsd/sumoConfiguration.xsd">

    <input>
        <net-file value="../model/Network.net.xml"/>
        <route-files value="../model/CarRoutes.rou.xml"/>
        <additional-files value="../model/BusStops.add.xml"/>
    </input>

    <output>
        <summary-output value="../model/logs/Log_summary.xml"/>
        <summary-output.period value="300"/>
        <tripinfo-output value="../model/logs/TripInfos.xml"/>
    </output>

    <time>
        <begin value="0"/>
        <end value="86400"/>
        <step-length value="1"/>
    </time>

    <processing>
        <ignore-junction-blocker value="0.1"/>
        <time-to-teleport value="-1"/>
        <waiting-time-memory value="6000"/>
    </processing>

    <report>
        <verbose value="true"/>
        <no-step-log value="true"/>
    </report>

    <traci_server>
        <remote-port value="63681"/>
    </traci_server>

    <gui_only>
        <quit-on-end value="true"/>
        <start value="true"/>
    </gui_only>

</configuration>
-->

<tripinfos xmlns:xsi="http://www.w3.org/2001/XMLSchema-instance" xsi:noNamespaceSchemaLocation="http://sumo.dlr.de/xsd/tripinfo_file.xsd">
    <tripinfo id="VEH_5" depart="12.00" departLane="183049957#0_1" departPos="5.10" departSpeed="0.00" departDelay="0.00" arrival="28.00" arrivalLane="331752492#2_1" arrivalPos="66.46" arrivalSpeed="13.32" duration="16.00" routeLength="112.21" waitingTime="0.00" waitingCount="0" stopTime="0.00" timeLoss="6.63" rerouteNo="0" devices="tripinfo_VEH_5" vType="sumo_car" speedFactor="1.08" vaporized=""/>
    <tripinfo id="VEH_7" depart="15.00" departLane="183049957#0_1" departPos="2.30" departSpeed="0.00" departDelay="0.00" arrival="32.00" arrivalLane="331752492#2_1" arrivalPos="66.46" arrivalSpeed="11.38" duration="17.00" routeLength="115.01" waitingTime="0.00" waitingCount="0" stopTime="0.00" timeLoss="5.75" rerouteNo="0" devices="tripinfo_VEH_7" vType="sumo_motorcycle" speedFactor="0.83" vaporized=""/>
    <tripinfo id="VEH_9" depart="18.00" departLane="183049957#0_1" departPos="5.10" departSpeed="0.00" departDelay="1.00" arrival="35.00" arrivalLane="331752492#2_1" arrivalPos="66.46" arrivalSpeed="12.19" duration="17.00" routeLength="112.21" waitingTime="0.00" waitingCount="0" stopTime="0.00" timeLoss="6.57" rerouteNo="0" devices="tripinfo_VEH_9" vType="sumo_car" speedFactor="0.89" vaporized=""/>
    <tripinfo id="VEH_11" depart="22.00" departLane="183049957#0_1" departPos="5.10" departSpeed="0.00" departDelay="1.00" arrival="39.00" arrivalLane="331752492#2_1" arrivalPos="66.46" arrivalSpeed="11.25" duration="17.00" routeLength="112.21" waitingTime="0.00" waitingCount="0" stopTime="0.00" timeLoss="6.31" rerouteNo="0" devices="tripinfo_VEH_11" vType="sumo_car" speedFactor="0.86" vaporized=""/>
    <tripinfo id="VEH_17" depart="27.00" departLane="183049957#0_1" departPos="14.45" departSpeed="0.00" departDelay="0.00" arrival="47.00" arrivalLane="331752492#2_1" arrivalPos="66.46" arrivalSpeed="9.70" duration="20.00" routeLength="102.86" waitingTime="0.00" waitingCount="0" stopTime="0.00" timeLoss="8.86" rerouteNo="0" devices="tripinfo_VEH_17" vType="sumo_truck" speedFactor="0.96" vaporized=""/>
    <tripinfo id="VEH_20" depart="33.00" departLane="183049957#0_1" departPos="2.30" departSpeed="0.00" departDelay="0.00" arrival="50.00" arrivalLane="331752492#2_1" arrivalPos="66.46" arrivalSpeed="12.54" duration="17.00" routeLength="115.01" waitingTime="0.00" waitingCount="0" stopTime="0.00" timeLoss="6.84" rerouteNo="0" devices="tripinfo_VEH_20" vType="sumo_motorcycle" speedFactor="0.94" vaporized=""/>
    <tripinfo id="VEH_22" depart="42.00" departLane="183049957#0_1" departPos="5.10" departSpeed="0.00" departDelay="0.00" arrival="59.00" arrivalLane="331752492#2_1" arrivalPos="66.46" arrivalSpeed="13.88" duration="17.00" routeLength="112.21" waitingTime="0.00" waitingCount="0" stopTime="0.00" timeLoss="8.02" rerouteNo="0" devices="tripinfo_VEH_22" vType="sumo_car" speedFactor="1.02" vaporized=""/>
    <tripinfo id="VEH_14" depart="23.00" departLane="921020465#1_1" departPos="5.10" departSpeed="0.00" departDelay="0.00" arrival="69.00" arrivalLane="E4_1" arrivalPos="50.96" arrivalSpeed="13.76" duration="46.00" routeLength="425.49" waitingTime="0.00" waitingCount="0" stopTime="0.00" timeLoss="8.26" rerouteNo="0" devices="tripinfo_VEH_14" vType="sumo_car" speedFactor="1.05" vaporized=""/>
    <tripinfo id="VEH_40" depart="69.00" departLane="183049957#0_1" departPos="6.60" departSpeed="0.00" departDelay="0.00" arrival="87.00" arrivalLane="331752492#2_1" arrivalPos="66.46" arrivalSpeed="10.74" duration="18.00" routeLength="110.71" waitingTime="0.00" waitingCount="0" stopTime="0.00" timeLoss="6.79" rerouteNo="0" devices="tripinfo_VEH_40" vType="sumo_transporter" speedFactor="1.05" vaporized=""/>
    <tripinfo id="VEH_46" depart="74.00" departLane="-1169441386_1" departPos="5.10" departSpeed="0.00" departDelay="0.00" arrival="93.00" arrivalLane="183419043#1_1" arrivalPos="11.49" arrivalSpeed="12.30" duration="19.00" routeLength="129.14" waitingTime="0.00" waitingCount="0" stopTime="0.00" timeLoss="9.03" rerouteNo="0" devices="tripinfo_VEH_46" vType="sumo_car" speedFactor="1.04" vaporized=""/>
    <tripinfo id="VEH_53" depart="85.00" departLane="183049957#0_1" departPos="5.10" departSpeed="0.00" departDelay="0.00" arrival="100.00" arrivalLane="331752492#2_1" arrivalPos="66.46" arrivalSpeed="13.81" duration="15.00" routeLength="112.21" waitingTime="0.00" waitingCount="0" stopTime="0.00" timeLoss="6.47" rerouteNo="0" devices="tripinfo_VEH_53" vType="sumo_car" speedFactor="1.17" vaporized=""/>
    <tripinfo id="VEH_54" depart="85.00" departLane="-1169441386_1" departPos="5.10" departSpeed="0.00" departDelay="0.00" arrival="104.00" arrivalLane="694116204#2_2" arrivalPos="45.20" arrivalSpeed="13.42" duration="19.00" routeLength="175.49" waitingTime="0.00" waitingCount="0" stopTime="0.00" timeLoss="6.01" rerouteNo="0" devices="tripinfo_VEH_54" vType="sumo_car" speedFactor="1.02" vaporized=""/>
    <tripinfo id="VEH_39" depart="76.00" departLane="921020465#1_1" departPos="5.10" departSpeed="0.00" departDelay="10.00" arrival="107.00" arrivalLane="183419043#1_1" arrivalPos="11.49" arrivalSpeed="10.59" duration="31.00" routeLength="172.24" waitingTime="3.00" waitingCount="2" stopTime="0.00" timeLoss="17.57" rerouteNo="0" devices="tripinfo_VEH_39" vType="sumo_car" speedFactor="1.18" vaporized=""/>
    <tripinfo id="VEH_42" depart="83.00" departLane="921020465#1_1" departPos="5.10" departSpeed="0.00" departDelay="14.00" arrival="109.00" arrivalLane="183419043#1_1" arrivalPos="11.49" arrivalSpeed="11.35" duration="26.00" routeLength="172.24" waitingTime="3.00" waitingCount="1" stopTime="0.00" timeLoss="11.92" rerouteNo="0" devices="tripinfo_VEH_42" vType="sumo_car" speedFactor="1.03" vaporized=""/>
    <tripinfo id="VEH_44" depart="88.00" departLane="921020465#1_1" departPos="5.10" departSpeed="0.00" departDelay="17.00" arrival="112.00" arrivalLane="183419043#1_1" arrivalPos="11.49" arrivalSpeed="12.59" duration="24.00" routeLength="172.24" waitingTime="1.00" waitingCount="1" stopTime="0.00" timeLoss="10.49" rerouteNo="0" devices="tripinfo_VEH_44" vType="sumo_car" speedFactor="1.09" vaporized=""/>
    <tripinfo id="VEH_45" depart="92.00" departLane="921020465#1_1" departPos="5.10" departSpeed="0.00" departDelay="19.00" arrival="117.00" arrivalLane="183419043#1_1" arrivalPos="11.49" arrivalSpeed="11.64" duration="25.00" routeLength="172.24" waitingTime="0.00" waitingCount="0" stopTime="0.00" timeLoss="11.02" rerouteNo="0" devices="tripinfo_VEH_45" vType="sumo_car" speedFactor="1.04" vaporized=""/>
    <tripinfo id="VEH_49" depart="99.00" departLane="921020465#1_1" departPos="5.10" departSpeed="0.00" departDelay="21.00" arrival="121.00" arrivalLane="183419043#1_1" arrivalPos="11.49" arrivalSpeed="11.33" duration="22.00" routeLength="172.24" waitingTime="0.00" waitingCount="0" stopTime="0.00" timeLoss="7.00" rerouteNo="0" devices="tripinfo_VEH_49" vType="sumo_car" speedFactor="0.90" vaporized=""/>
    <tripinfo id="VEH_68" depart="107.00" departLane="183049957#0_1" departPos="5.10" departSpeed="0.00" departDelay="0.00" arrival="124.00" arrivalLane="331752492#2_1" arrivalPos="66.46" arrivalSpeed="12.18" duration="17.00" routeLength="112.21" waitingTime="0.00" waitingCount="0" stopTime="0.00" timeLoss="6.79" rerouteNo="0" devices="tripinfo_VEH_68" vType="sumo_car" speedFactor="0.91" vaporized=""/>
    <tripinfo id="VEH_75" depart="111.00" departLane="183049957#0_1" departPos="5.10" departSpeed="0.00" departDelay="0.00" arrival="127.00" arrivalLane="331752492#2_1" arrivalPos="66.46" arrivalSpeed="13.88" duration="16.00" routeLength="112.21" waitingTime="0.00" waitingCount="0" stopTime="0.00" timeLoss="6.77" rerouteNo="0" devices="tripinfo_VEH_75" vType="sumo_car" speedFactor="1.06" vaporized=""/>
    <tripinfo id="VEH_79" depart="114.00" departLane="183049957#0_1" departPos="2.30" departSpeed="0.00" departDelay="1.00" arrival="130.00" arrivalLane="331752492#2_1" arrivalPos="66.46" arrivalSpeed="13.60" duration="16.00" routeLength="115.01" waitingTime="0.00" waitingCount="0" stopTime="0.00" timeLoss="6.32" rerouteNo="0" devices="tripinfo_VEH_79" vType="sumo_motorcycle" speedFactor="0.98" vaporized=""/>
    <tripinfo id="VEH_10" depart="19.00" departLane="-25973410#1_1" departPos="5.10" departSpeed="0.00" departDelay="1.00" arrival="131.00" arrivalLane="-758088375#0_1" arrivalPos="24.98" arrivalSpeed="7.41" duration="112.00" routeLength="75.26" waitingTime="93.00" waitingCount="1" stopTime="0.00" timeLoss="101.59" rerouteNo="0" devices="tripinfo_VEH_10" vType="sumo_car" speedFactor="0.94" vaporized=""/>
    <tripinfo id="VEH_16" depart="27.00" departLane="758088375#0_1" departPos="6.60" departSpeed="0.00" departDelay="0.00" arrival="131.00" arrivalLane="25973410#1_1" arrivalPos="32.08" arrivalSpeed="8.08" duration="104.00" routeLength="73.79" waitingTime="83.00" waitingCount="1" stopTime="0.00" timeLoss="94.41" rerouteNo="0" devices="tripinfo_VEH_16" vType="sumo_transporter" speedFactor="1.00" vaporized=""/>
    <tripinfo id="VEH_55" depart="86.00" departLane="758088375#0_1" departPos="5.10" departSpeed="0.00" departDelay="0.00" arrival="133.00" arrivalLane="25973410#1_1" arrivalPos="32.08" arrivalSpeed="8.51" duration="47.00" routeLength="75.29" waitingTime="29.00" waitingCount="1" stopTime="0.00" timeLoss="38.23" rerouteNo="0" devices="tripinfo_VEH_55" vType="sumo_car" speedFactor="1.10" vaporized=""/>
    <tripinfo id="VEH_82" depart="118.00" departLane="183049957#0_1" departPos="5.10" departSpeed="0.00" departDelay="0.00" arrival="134.00" arrivalLane="331752492#2_1" arrivalPos="66.46" arrivalSpeed="13.55" duration="16.00" routeLength="112.21" waitingTime="0.00" waitingCount="0" stopTime="0.00" timeLoss="6.92" rerouteNo="0" devices="tripinfo_VEH_82" vType="sumo_car" speedFactor="1.03" vaporized=""/>
    <tripinfo id="VEH_88" depart="124.00" departLane="183049957#0_1" departPos="5.10" departSpeed="0.00" departDelay="0.00" arrival="140.00" arrivalLane="331752492#2_1" arrivalPos="66.46" arrivalSpeed="13.26" duration="16.00" routeLength="112.21" waitingTime="0.00" waitingCount="0" stopTime="0.00" timeLoss="7.22" rerouteNo="0" devices="tripinfo_VEH_88" vType="sumo_car" speedFactor="1.00" vaporized=""/>
    <tripinfo id="VEH_6" depart="15.00" departLane="-25973410#1_1" departPos="5.10" departSpeed="0.00" departDelay="0.00" arrival="141.00" arrivalLane="694116204#2_1" arrivalPos="45.20" arrivalSpeed="13.37" duration="126.00" routeLength="221.68" waitingTime="94.00" waitingCount="1" stopTime="0.00" timeLoss="104.77" rerouteNo="0" devices="tripinfo_VEH_6" vType="sumo_car" speedFactor="1.03" vaporized=""/>
    <tripinfo id="VEH_23" depart="43.00" departLane="-25973410#1_1" departPos="5.10" departSpeed="0.00" departDelay="0.00" arrival="146.00" arrivalLane="694116204#2_1" arrivalPos="45.20" arrivalSpeed="13.17" duration="103.00" routeLength="221.68" waitingTime="72.00" waitingCount="1" stopTime="0.00" timeLoss="81.19" rerouteNo="0" devices="tripinfo_VEH_23" vType="sumo_car" speedFactor="1.01" vaporized=""/>
    <tripinfo id="VEH_35" depart="60.00" departLane="-25973410#1_1" departPos="5.10" departSpeed="0.00" departDelay="0.00" arrival="148.00" arrivalLane="694116204#2_1" arrivalPos="45.20" arrivalSpeed="13.39" duration="88.00" routeLength="221.68" waitingTime="59.00" waitingCount="1" stopTime="0.00" timeLoss="67.74" rerouteNo="0" devices="tripinfo_VEH_35" vType="sumo_car" speedFactor="1.17" vaporized=""/>
    <tripinfo id="VEH_98" depart="135.00" departLane="183049957#0_1" departPos="2.30" departSpeed="0.00" departDelay="0.00" arrival="150.00" arrivalLane="331752492#2_1" arrivalPos="66.46" arrivalSpeed="13.37" duration="15.00" routeLength="115.01" waitingTime="0.00" waitingCount="0" stopTime="0.00" timeLoss="5.55" rerouteNo="0" devices="tripinfo_VEH_98" vType="sumo_motorcycle" speedFactor="1.01" vaporized=""/>
    <tripinfo id="VEH_101" depart="138.00" departLane="183049957#0_1" departPos="5.10" departSpeed="0.00" departDelay="1.00" arrival="155.00" arrivalLane="331752492#2_1" arrivalPos="66.46" arrivalSpeed="13.19" duration="17.00" routeLength="112.21" waitingTime="0.00" waitingCount="0" stopTime="0.00" timeLoss="8.06" rerouteNo="0" devices="tripinfo_VEH_101" vType="sumo_car" speedFactor="1.10" vaporized=""/>
    <tripinfo id="VEH_106" depart="144.00" departLane="758088375#0_1" departPos="6.60" departSpeed="0.00" departDelay="0.00" arrival="159.00" arrivalLane="25973410#1_1" arrivalPos="32.08" arrivalSpeed="7.86" duration="15.00" routeLength="73.79" waitingTime="0.00" waitingCount="0" stopTime="0.00" timeLoss="4.72" rerouteNo="0" devices="tripinfo_VEH_106" vType="sumo_transporter" speedFactor="0.95" vaporized=""/>
    <tripinfo id="VEH_105" depart="144.00" departLane="-1169441386_1" departPos="5.10" departSpeed="0.00" departDelay="2.00" arrival="163.00" arrivalLane="183419043#1_1" arrivalPos="11.49" arrivalSpeed="12.64" duration="19.00" routeLength="129.14" waitingTime="0.00" waitingCount="0" stopTime="0.00" timeLoss="8.33" rerouteNo="0" devices="tripinfo_VEH_105" vType="sumo_car" speedFactor="0.95" vaporized=""/>
    <tripinfo id="VEH_112" depart="150.00" departLane="183049957#0_1" departPos="5.10" departSpeed="0.00" departDelay="0.00" arrival="166.00" arrivalLane="331752492#2_1" arrivalPos="66.46" arrivalSpeed="12.73" duration="16.00" routeLength="112.21" waitingTime="0.00" waitingCount="0" stopTime="0.00" timeLoss="6.46" rerouteNo="0" devices="tripinfo_VEH_112" vType="sumo_car" speedFactor="0.93" vaporized=""/>
    <tripinfo id="VEH_130" depart="171.00" departLane="183049957#0_1" departPos="5.10" departSpeed="0.00" departDelay="0.00" arrival="186.00" arrivalLane="331752492#2_1" arrivalPos="66.46" arrivalSpeed="13.60" duration="15.00" routeLength="112.21" waitingTime="0.00" waitingCount="0" stopTime="0.00" timeLoss="6.59" rerouteNo="0" devices="tripinfo_VEH_130" vType="sumo_car" speedFactor="1.12" vaporized=""/>
    <tripinfo id="VEH_24" depart="44.00" departLane="23320502_1" departPos="5.10" departSpeed="0.00" departDelay="0.00" arrival="187.00" arrivalLane="25973410#1_1" arrivalPos="32.08" arrivalSpeed="7.93" duration="143.00" routeLength="524.68" waitingTime="65.00" waitingCount="2" stopTime="0.00" timeLoss="85.17" rerouteNo="0" devices="tripinfo_VEH_24" vType="sumo_car" speedFactor="0.97" vaporized=""/>
    <tripinfo id="VEH_13" depart="23.00" departLane="-E4_1" departPos="5.10" departSpeed="0.00" departDelay="0.00" arrival="189.00" arrivalLane="-E2_1" arrivalPos="20.13" arrivalSpeed="10.58" duration="166.00" routeLength="88.22" waitingTime="147.00" waitingCount="1" stopTime="0.00" timeLoss="159.05" rerouteNo="0" devices="tripinfo_VEH_13" vType="sumo_car" speedFactor="1.03" vaporized=""/>
    <tripinfo id="VEH_15" depart="24.00" departLane="-183419042#1_1" departPos="2.30" departSpeed="0.00" departDelay="0.00" arrival="190.00" arrivalLane="331752492#2_1" arrivalPos="66.46" arrivalSpeed="15.20" duration="166.00" routeLength="271.59" waitingTime="137.00" waitingCount="1" stopTime="0.00" timeLoss="148.31" rerouteNo="0" devices="tripinfo_VEH_15" vType="sumo_motorcycle" speedFactor="1.12" vaporized=""/>
    <tripinfo id="VEH_26" depart="47.00" departLane="-E4_1" departPos="5.10" departSpeed="0.00" departDelay="0.00" arrival="191.00" arrivalLane="-E2_1" arrivalPos="20.13" arrivalSpeed="11.32" duration="144.00" routeLength="88.22" waitingTime="124.00" waitingCount="1" stopTime="0.00" timeLoss="135.46" rerouteNo="0" devices="tripinfo_VEH_26" vType="sumo_car" speedFactor="0.83" vaporized=""/>
    <tripinfo id="VEH_100" depart="137.00" departLane="-183419042#1_1" departPos="5.10" departSpeed="0.00" departDelay="0.00" arrival="193.00" arrivalLane="331752492#2_1" arrivalPos="66.46" arrivalSpeed="13.48" duration="56.00" routeLength="268.79" waitingTime="24.00" waitingCount="1" stopTime="0.00" timeLoss="36.65" rerouteNo="0" devices="tripinfo_VEH_100" vType="sumo_car" speedFactor="1.12" vaporized=""/>
    <tripinfo id="VEH_136" depart="182.00" departLane="183049957#0_1" departPos="5.10" departSpeed="0.00" departDelay="0.00" arrival="197.00" arrivalLane="331752492#2_1" arrivalPos="66.46" arrivalSpeed="13.82" duration="15.00" routeLength="112.21" waitingTime="0.00" waitingCount="0" stopTime="0.00" timeLoss="6.41" rerouteNo="0" devices="tripinfo_VEH_136" vType="sumo_car" speedFactor="1.23" vaporized=""/>
    <tripinfo id="VEH_138" depart="186.00" departLane="183049957#0_1" departPos="5.10" departSpeed="0.00" departDelay="2.00" arrival="201.00" arrivalLane="331752492#2_1" arrivalPos="66.46" arrivalSpeed="13.35" duration="15.00" routeLength="112.21" waitingTime="0.00" waitingCount="0" stopTime="0.00" timeLoss="6.40" rerouteNo="0" devices="tripinfo_VEH_138" vType="sumo_car" speedFactor="1.12" vaporized=""/>
    <tripinfo id="VEH_3" depart="5.00" departLane="-E4_1" departPos="5.10" departSpeed="0.00" departDelay="0.00" arrival="203.00" arrivalLane="-758088375#0_1" arrivalPos="24.98" arrivalSpeed="7.81" duration="198.00" routeLength="212.81" waitingTime="164.00" waitingCount="1" stopTime="0.00" timeLoss="175.37" rerouteNo="0" devices="tripinfo_VEH_3" vType="sumo_car" speedFactor="0.94" vaporized=""/>
    <tripinfo id="VEH_84" depart="122.00" departLane="-E4_1" departPos="5.10" departSpeed="0.00" departDelay="0.00" arrival="205.00" arrivalLane="-758088375#0_1" arrivalPos="24.98" arrivalSpeed="7.78" duration="83.00" routeLength="212.81" waitingTime="48.00" waitingCount="1" stopTime="0.00" timeLoss="61.76" rerouteNo="0" devices="tripinfo_VEH_84" vType="sumo_car" speedFactor="1.02" vaporized=""/>
    <tripinfo id="VEH_140" depart="190.00" departLane="183049957#0_1" departPos="5.10" departSpeed="0.00" departDelay="1.00" arrival="206.00" arrivalLane="331752492#2_1" arrivalPos="66.46" arrivalSpeed="13.67" duration="16.00" routeLength="112.21" waitingTime="0.00" waitingCount="0" stopTime="0.00" timeLoss="6.65" rerouteNo="0" devices="tripinfo_VEH_140" vType="sumo_car" speedFactor="1.00" vaporized=""/>
    <tripinfo id="VEH_28" depart="50.00" departLane="1162834479#1_1" departPos="0.20" departSpeed="0.00" departDelay="0.00" arrival="207.00" arrivalLane="183419043#1_1" arrivalPos="11.49" arrivalSpeed="9.11" duration="157.00" routeLength="931.93" waitingTime="17.00" waitingCount="2" stopTime="0.00" timeLoss="44.53" rerouteNo="0" devices="tripinfo_VEH_28" vType="sumo_car" speedFactor="0.92" vaporized=""/>
    <tripinfo id="VEH_89" depart="125.00" departLane="-E4_1" departPos="5.10" departSpeed="0.00" departDelay="0.00" arrival="207.00" arrivalLane="-758088375#0_1" arrivalPos="24.98" arrivalSpeed="8.56" duration="82.00" routeLength="212.81" waitingTime="45.00" waitingCount="1" stopTime="0.00" timeLoss="61.00" rerouteNo="0" devices="tripinfo_VEH_89" vType="sumo_car" speedFactor="1.04" vaporized=""/>
    <tripinfo id="VEH_142" depart="194.00" departLane="183049957#0_1" departPos="5.10" departSpeed="0.00" departDelay="3.00" arrival="210.00" arrivalLane="331752492#2_1" arrivalPos="66.46" arrivalSpeed="13.64" duration="16.00" routeLength="112.21" waitingTime="0.00" waitingCount="0" stopTime="0.00" timeLoss="6.66" rerouteNo="0" devices="tripinfo_VEH_142" vType="sumo_car" speedFactor="1.11" vaporized=""/>
    <tripinfo id="VEH_93" depart="133.00" departLane="-E4_1" departPos="5.10" departSpeed="0.00" departDelay="4.00" arrival="212.00" arrivalLane="-758088375#0_1" arrivalPos="24.98" arrivalSpeed="6.78" duration="79.00" routeLength="212.81" waitingTime="42.00" waitingCount="1" stopTime="0.00" timeLoss="55.65" rerouteNo="0" devices="tripinfo_VEH_93" vType="sumo_car" speedFactor="0.89" vaporized=""/>
    <tripinfo id="VEH_149" depart="201.00" departLane="183049957#0_1" departPos="2.30" departSpeed="0.00" departDelay="0.00" arrival="216.00" arrivalLane="331752492#2_1" arrivalPos="66.46" arrivalSpeed="12.99" duration="15.00" routeLength="115.01" waitingTime="0.00" waitingCount="0" stopTime="0.00" timeLoss="5.36" rerouteNo="0" devices="tripinfo_VEH_149" vType="sumo_motorcycle" speedFactor="1.00" vaporized=""/>
    <tripinfo id="VEH_147" depart="199.00" departLane="-E4_1" departPos="5.10" departSpeed="0.00" departDelay="0.00" arrival="225.00" arrivalLane="-758088375#0_1" arrivalPos="24.98" arrivalSpeed="9.15" duration="26.00" routeLength="212.81" waitingTime="0.00" waitingCount="0" stopTime="0.00" timeLoss="6.59" rerouteNo="0" devices="tripinfo_VEH_147" vType="sumo_car" speedFactor="1.14" vaporized=""/>
    <tripinfo id="VEH_150" depart="203.00" departLane="-E4_1" departPos="5.10" departSpeed="0.00" departDelay="2.00" arrival="232.00" arrivalLane="-758088375#0_1" arrivalPos="24.98" arrivalSpeed="7.82" duration="29.00" routeLength="212.81" waitingTime="0.00" waitingCount="0" stopTime="0.00" timeLoss="7.67" rerouteNo="0" devices="tripinfo_VEH_150" vType="sumo_car" speedFactor="0.97" vaporized=""/>
    <tripinfo id="VEH_152" depart="208.00" departLane="-E4_1" departPos="5.10" departSpeed="0.00" departDelay="4.00" arrival="237.00" arrivalLane="-758088375#0_1" arrivalPos="24.98" arrivalSpeed="7.49" duration="29.00" routeLength="212.81" waitingTime="0.00" waitingCount="0" stopTime="0.00" timeLoss="7.03" rerouteNo="0" devices="tripinfo_VEH_152" vType="sumo_car" speedFactor="0.96" vaporized=""/>
    <tripinfo id="VEH_156" depart="211.00" departLane="-183419042#1_1" departPos="5.10" departSpeed="0.00" departDelay="3.00" arrival="237.00" arrivalLane="331752492#2_1" arrivalPos="66.46" arrivalSpeed="13.20" duration="26.00" routeLength="268.79" waitingTime="0.00" waitingCount="0" stopTime="0.00" timeLoss="6.44" rerouteNo="0" devices="tripinfo_VEH_156" vType="sumo_car" speedFactor="1.06" vaporized=""/>
    <tripinfo id="VEH_153" depart="212.00" departLane="-E4_1" departPos="5.10" departSpeed="0.00" departDelay="6.00" arrival="241.00" arrivalLane="-758088375#0_1" arrivalPos="24.98" arrivalSpeed="7.70" duration="29.00" routeLength="212.81" waitingTime="0.00" waitingCount="0" stopTime="0.00" timeLoss="7.88" rerouteNo="0" devices="tripinfo_VEH_153" vType="sumo_car" speedFactor="1.00" vaporized=""/>
    <tripinfo id="VEH_164" depart="222.00" departLane="183049957#0_1" departPos="5.10" departSpeed="0.00" departDelay="0.00" arrival="246.00" arrivalLane="331752492#2_1" arrivalPos="66.46" arrivalSpeed="13.45" duration="24.00" routeLength="112.21" waitingTime="4.00" waitingCount="1" stopTime="0.00" timeLoss="15.30" rerouteNo="0" devices="tripinfo_VEH_164" vType="sumo_car" speedFactor="0.99" vaporized=""/>
    <tripinfo id="VEH_31" depart="54.00" departLane="1162834479#1_1" departPos="0.20" departSpeed="0.00" departDelay="1.00" arrival="251.00" arrivalLane="694116204#2_2" arrivalPos="45.20" arrivalSpeed="12.39" duration="197.00" routeLength="992.43" waitingTime="49.00" waitingCount="2" stopTime="0.00" timeLoss="82.44" rerouteNo="0" devices="tripinfo_VEH_31" vType="sumo_car" speedFactor="0.93" vaporized=""/>
    <tripinfo id="VEH_170" depart="226.00" departLane="183049957#0_1" departPos="6.60" departSpeed="0.00" departDelay="1.00" arrival="251.00" arrivalLane="331752492#2_1" arrivalPos="66.46" arrivalSpeed="10.80" duration="25.00" routeLength="110.71" waitingTime="0.00" waitingCount="0" stopTime="0.00" timeLoss="13.91" rerouteNo="0" devices="tripinfo_VEH_170" vType="sumo_transporter" speedFactor="0.99" vaporized=""/>
    <tripinfo id="VEH_12" depart="22.00" departLane="1162834479#1_1" departPos="0.20" departSpeed="0.00" departDelay="0.00" arrival="252.00" arrivalLane="694116204#2_1" arrivalPos="45.20" arrivalSpeed="13.70" duration="230.00" routeLength="992.43" waitingTime="96.00" waitingCount="3" stopTime="0.00" timeLoss="130.72" rerouteNo="0" devices="tripinfo_VEH_12" vType="sumo_car" speedFactor="1.09" vaporized=""/>
    <tripinfo id="VEH_52" depart="81.00" departLane="758088375#0_1" departPos="5.10" departSpeed="0.00" departDelay="0.00" arrival="253.00" arrivalLane="-E13_1" arrivalPos="59.59" arrivalSpeed="11.19" duration="172.00" routeLength="892.87" waitingTime="37.00" waitingCount="2" stopTime="0.00" timeLoss="59.47" rerouteNo="0" devices="tripinfo_VEH_52" vType="sumo_car" speedFactor="0.85" vaporized=""/>
    <tripinfo id="VEH_91" depart="129.00" departLane="-E4_1" departPos="5.10" departSpeed="0.00" departDelay="2.00" arrival="254.00" arrivalLane="694116204#2_1" arrivalPos="45.20" arrivalSpeed="13.18" duration="125.00" routeLength="370.12" waitingTime="69.00" waitingCount="2" stopTime="0.00" timeLoss="90.79" rerouteNo="0" devices="tripinfo_VEH_91" vType="sumo_car" speedFactor="1.02" vaporized=""/>
    <tripinfo id="VEH_171" depart="233.00" departLane="183049957#0_1" departPos="14.45" departSpeed="0.00" departDelay="7.00" arrival="254.00" arrivalLane="331752492#2_1" arrivalPos="66.46" arrivalSpeed="9.66" duration="21.00" routeLength="102.86" waitingTime="0.00" waitingCount="0" stopTime="0.00" timeLoss="10.05" rerouteNo="0" devices="tripinfo_VEH_171" vType="sumo_truck" speedFactor="0.97" vaporized=""/>
    <tripinfo id="VEH_94" depart="136.00" departLane="-E4_1" departPos="5.10" departSpeed="0.00" departDelay="5.00" arrival="256.00" arrivalLane="694116204#2_1" arrivalPos="45.20" arrivalSpeed="11.00" duration="120.00" routeLength="370.12" waitingTime="61.00" waitingCount="3" stopTime="0.00" timeLoss="79.00" rerouteNo="0" devices="tripinfo_VEH_94" vType="sumo_car" speedFactor="0.83" vaporized=""/>
    <tripinfo id="VEH_177" depart="238.00" departLane="183049957#0_1" departPos="5.10" departSpeed="0.00" departDelay="9.00" arrival="257.00" arrivalLane="331752492#2_1" arrivalPos="66.46" arrivalSpeed="12.58" duration="19.00" routeLength="112.21" waitingTime="1.00" waitingCount="1" stopTime="0.00" timeLoss="9.06" rerouteNo="0" devices="tripinfo_VEH_177" vType="sumo_car" speedFactor="0.92" vaporized=""/>
    <tripinfo id="VEH_96" depart="185.00" departLane="-E4_1" departPos="6.60" departSpeed="0.00" departDelay="52.00" arrival="260.00" arrivalLane="694116204#2_1" arrivalPos="45.20" arrivalSpeed="10.84" duration="75.00" routeLength="368.62" waitingTime="19.00" waitingCount="2" stopTime="0.00" timeLoss="37.86" rerouteNo="0" devices="tripinfo_VEH_96" vType="sumo_transporter" speedFactor="1.05" vaporized=""/>
    <tripinfo id="VEH_200" depart="262.00" departLane="183049957#0_1" departPos="5.10" departSpeed="0.00" departDelay="0.00" arrival="277.00" arrivalLane="331752492#2_1" arrivalPos="66.46" arrivalSpeed="13.59" duration="15.00" routeLength="112.21" waitingTime="0.00" waitingCount="0" stopTime="0.00" timeLoss="6.34" rerouteNo="0" devices="tripinfo_VEH_200" vType="sumo_car" speedFactor="1.06" vaporized=""/>
    <tripinfo id="BUS_1-route_114" depart="0.00" departLane="-37181834#3_0" departPos="12.10" departSpeed="0.00" departDelay="0.00" arrival="287.00" arrivalLane="183419042#9_0" arrivalPos="17.60" arrivalSpeed="13.38" duration="287.00" routeLength="1568.26" waitingTime="6.00" waitingCount="2" stopTime="60.00" timeLoss="74.68" rerouteNo="0" devices="tripinfo_BUS_1-route_114" vType="sumo_bus" speedFactor="1.00" vaporized=""/>
    <tripinfo id="VEH_213" depart="276.00" departLane="183049957#0_1" departPos="5.10" departSpeed="0.00" departDelay="0.00" arrival="292.00" arrivalLane="331752492#2_1" arrivalPos="66.46" arrivalSpeed="13.25" duration="16.00" routeLength="112.21" waitingTime="0.00" waitingCount="0" stopTime="0.00" timeLoss="7.04" rerouteNo="0" devices="tripinfo_VEH_213" vType="sumo_car" speedFactor="1.04" vaporized=""/>
    <tripinfo id="VEH_56" depart="87.00" departLane="758088375#0_1" departPos="5.10" departSpeed="0.00" departDelay="0.00" arrival="309.00" arrivalLane="E4_1" arrivalPos="50.96" arrivalSpeed="12.59" duration="222.00" routeLength="211.40" waitingTime="186.00" waitingCount="2" stopTime="0.00" timeLoss="202.46" rerouteNo="0" devices="tripinfo_VEH_56" vType="sumo_car" speedFactor="1.00" vaporized=""/>
    <tripinfo id="VEH_229" depart="294.00" departLane="183049957#0_1" departPos="5.10" departSpeed="0.00" departDelay="0.00" arrival="309.00" arrivalLane="331752492#2_1" arrivalPos="66.46" arrivalSpeed="13.87" duration="15.00" routeLength="112.21" waitingTime="0.00" waitingCount="0" stopTime="0.00" timeLoss="6.50" rerouteNo="0" devices="tripinfo_VEH_229" vType="sumo_car" speedFactor="1.11" vaporized=""/>
    <tripinfo id="VEH_2" depart="1.00" departLane="-E4_1" departPos="5.10" departSpeed="0.00" departDelay="0.00" arrival="310.00" arrivalLane="-1162834479#1_1" arrivalPos="0.20" arrivalSpeed="9.95" duration="309.00" routeLength="746.01" waitingTime="203.00" waitingCount="3" stopTime="0.00" timeLoss="229.60" rerouteNo="0" devices="tripinfo_VEH_2" vType="sumo_car" speedFactor="1.06" vaporized=""/>