<?xml version="1.0" encoding="UTF-8"?>

<!-- generated on 2025-06-28 16:19:13 by Eclipse SUMO sumo Version 1.19.0
<configuration xmlns:xsi="http://www.w3.org/2001/XMLSchema-instance" xsi:noNamespaceSchemaLocation="http://sumo.dlr.de/xsd/sumoConfiguration.xsd">

    <input>
        <net-file value="../model/Network.net.xml"/>
        <route-files value="../model/CarRoutes.rou.xml"/>
        <additional-files value="../model/BusStops.add.xml"/>
    </input>

    <output>
        <summary-output value="../model/logs/Log_summary.xml"/>
        <summary-output.period value="300"/>
        <tripinfo-output value="../model/logs/TripInfos.xml"/>
    </output>

    <time>
        <begin value="0"/>
        <end value="86400"/>
        <step-length value="1"/>
    </time>

    <processing>
        <ignore-junction-blocker value="0.1"/>
        <time-to-teleport value="-1"/>
        <waiting-time-memory value="6000"/>
    </processing>

    <report>
        <verbose value="true"/>
        <no-step-log value="true"/>
    </report>

    <traci_server>
        <remote-port value="52647"/>
    </traci_server>

    <gui_only>
        <quit-on-end value="true"/>
        <start value="true"/>
    </gui_only>

</configuration>
-->

<tripinfos xmlns:xsi="http://www.w3.org/2001/XMLSchema-instance" xsi:noNamespaceSchemaLocation="http://sumo.dlr.de/xsd/tripinfo_file.xsd">
    <tripinfo id="VEH_5" depart="12.00" departLane="183049957#0_1" departPos="5.10" departSpeed="0.00" departDelay="0.00" arrival="28.00" arrivalLane="331752492#2_1" arrivalPos="66.46" arrivalSpeed="13.19" duration="16.00" routeLength="112.21" waitingTime="0.00" waitingCount="0" stopTime="0.00" timeLoss="6.88" rerouteNo="0" devices="tripinfo_VEH_5" vType="sumo_car" speedFactor="1.08" vaporized=""/>
    <tripinfo id="VEH_7" depart="16.00" departLane="183049957#0_1" departPos="5.10" departSpeed="0.00" departDelay="1.00" arrival="33.00" arrivalLane="331752492#2_1" arrivalPos="66.46" arrivalSpeed="11.42" duration="17.00" routeLength="112.21" waitingTime="0.00" waitingCount="0" stopTime="0.00" timeLoss="6.08" rerouteNo="0" devices="tripinfo_VEH_7" vType="sumo_car" speedFactor="0.83" vaporized=""/>
    <tripinfo id="VEH_9" depart="20.00" departLane="183049957#0_1" departPos="5.10" departSpeed="0.00" departDelay="3.00" arrival="37.00" arrivalLane="331752492#2_1" arrivalPos="66.46" arrivalSpeed="11.92" duration="17.00" routeLength="112.21" waitingTime="0.00" waitingCount="0" stopTime="0.00" timeLoss="6.73" rerouteNo="0" devices="tripinfo_VEH_9" vType="sumo_car" speedFactor="0.89" vaporized=""/>
    <tripinfo id="VEH_11" depart="24.00" departLane="183049957#0_1" departPos="5.10" departSpeed="0.00" departDelay="3.00" arrival="40.00" arrivalLane="331752492#2_1" arrivalPos="66.46" arrivalSpeed="11.48" duration="16.00" routeLength="112.21" waitingTime="0.00" waitingCount="0" stopTime="0.00" timeLoss="6.08" rerouteNo="0" devices="tripinfo_VEH_11" vType="sumo_car" speedFactor="0.86" vaporized=""/>
    <tripinfo id="VEH_17" depart="28.00" departLane="183049957#0_1" departPos="5.10" departSpeed="0.00" departDelay="1.00" arrival="44.00" arrivalLane="331752492#2_1" arrivalPos="66.46" arrivalSpeed="12.38" duration="16.00" routeLength="112.21" waitingTime="0.00" waitingCount="0" stopTime="0.00" timeLoss="6.64" rerouteNo="0" devices="tripinfo_VEH_17" vType="sumo_car" speedFactor="0.93" vaporized=""/>
    <tripinfo id="VEH_20" depart="33.00" departLane="183049957#0_1" departPos="5.10" departSpeed="0.00" departDelay="0.00" arrival="49.00" arrivalLane="331752492#2_1" arrivalPos="66.46" arrivalSpeed="12.75" duration="16.00" routeLength="112.21" waitingTime="0.00" waitingCount="0" stopTime="0.00" timeLoss="6.50" rerouteNo="0" devices="tripinfo_VEH_20" vType="sumo_car" speedFactor="0.94" vaporized=""/>
    <tripinfo id="VEH_22" depart="42.00" departLane="183049957#0_1" departPos="5.10" departSpeed="0.00" departDelay="0.00" arrival="58.00" arrivalLane="331752492#2_1" arrivalPos="66.46" arrivalSpeed="13.35" duration="16.00" routeLength="112.21" waitingTime="0.00" waitingCount="0" stopTime="0.00" timeLoss="6.95" rerouteNo="0" devices="tripinfo_VEH_22" vType="sumo_car" speedFactor="1.02" vaporized=""/>
    <tripinfo id="VEH_13" depart="23.00" departLane="-E4_1" departPos="2.30" departSpeed="0.00" departDelay="0.00" arrival="60.00" arrivalLane="-E2_1" arrivalPos="20.13" arrivalSpeed="12.34" duration="37.00" routeLength="91.02" waitingTime="18.00" waitingCount="1" stopTime="0.00" timeLoss="29.78" rerouteNo="0" devices="tripinfo_VEH_13" vType="sumo_motorcycle" speedFactor="1.03" vaporized=""/>
    <tripinfo id="VEH_16" depart="27.00" departLane="758088375#0_1" departPos="5.10" departSpeed="0.00" departDelay="0.00" arrival="60.00" arrivalLane="25973410#1_1" arrivalPos="32.08" arrivalSpeed="8.16" duration="33.00" routeLength="75.29" waitingTime="15.00" waitingCount="1" stopTime="0.00" timeLoss="22.93" rerouteNo="0" devices="tripinfo_VEH_16" vType="sumo_car" speedFactor="0.99" vaporized=""/>
    <tripinfo id="VEH_10" depart="19.00" departLane="-25973410#1_1" departPos="5.10" departSpeed="0.00" departDelay="1.00" arrival="61.00" arrivalLane="-758088375#0_1" arrivalPos="24.98" arrivalSpeed="7.45" duration="42.00" routeLength="75.26" waitingTime="24.00" waitingCount="1" stopTime="0.00" timeLoss="32.04" rerouteNo="0" devices="tripinfo_VEH_10" vType="sumo_car" speedFactor="0.94" vaporized=""/>
    <tripinfo id="VEH_26" depart="47.00" departLane="-E4_1" departPos="5.10" departSpeed="0.00" departDelay="0.00" arrival="61.00" arrivalLane="-E2_1" arrivalPos="20.13" arrivalSpeed="11.36" duration="14.00" routeLength="88.22" waitingTime="0.00" waitingCount="0" stopTime="0.00" timeLoss="6.04" rerouteNo="0" devices="tripinfo_VEH_26" vType="sumo_car" speedFactor="0.83" vaporized=""/>
    <tripinfo id="VEH_15" depart="24.00" departLane="-183419042#1_1" departPos="5.10" departSpeed="0.00" departDelay="0.00" arrival="73.00" arrivalLane="331752492#2_1" arrivalPos="66.46" arrivalSpeed="13.40" duration="49.00" routeLength="268.79" waitingTime="17.00" waitingCount="1" stopTime="0.00" timeLoss="28.97" rerouteNo="0" devices="tripinfo_VEH_15" vType="sumo_car" speedFactor="1.12" vaporized=""/>
    <tripinfo id="VEH_40" depart="69.00" departLane="183049957#0_1" departPos="5.10" departSpeed="0.00" departDelay="0.00" arrival="84.00" arrivalLane="331752492#2_1" arrivalPos="66.46" arrivalSpeed="13.88" duration="15.00" routeLength="112.21" waitingTime="0.00" waitingCount="0" stopTime="0.00" timeLoss="6.35" rerouteNo="0" devices="tripinfo_VEH_40" vType="sumo_car" speedFactor="1.10" vaporized=""/>
    <tripinfo id="VEH_46" depart="74.00" departLane="-1169441386_1" departPos="5.10" departSpeed="0.00" departDelay="0.00" arrival="93.00" arrivalLane="183419043#1_1" arrivalPos="11.49" arrivalSpeed="11.54" duration="19.00" routeLength="129.14" waitingTime="0.00" waitingCount="0" stopTime="0.00" timeLoss="9.35" rerouteNo="0" devices="tripinfo_VEH_46" vType="sumo_car" speedFactor="1.04" vaporized=""/>
    <tripinfo id="VEH_53" depart="85.00" departLane="183049957#0_1" departPos="5.10" departSpeed="0.00" departDelay="0.00" arrival="100.00" arrivalLane="331752492#2_1" arrivalPos="66.46" arrivalSpeed="13.69" duration="15.00" routeLength="112.21" waitingTime="0.00" waitingCount="0" stopTime="0.00" timeLoss="6.46" rerouteNo="0" devices="tripinfo_VEH_53" vType="sumo_car" speedFactor="1.17" vaporized=""/>
    <tripinfo id="VEH_6" depart="15.00" departLane="-25973410#1_1" departPos="5.10" departSpeed="0.00" departDelay="0.00" arrival="102.00" arrivalLane="694116204#2_1" arrivalPos="45.20" arrivalSpeed="13.53" duration="87.00" routeLength="221.68" waitingTime="49.00" waitingCount="2" stopTime="0.00" timeLoss="65.60" rerouteNo="0" devices="tripinfo_VEH_6" vType="sumo_car" speedFactor="1.03" vaporized=""/>
    <tripinfo id="VEH_23" depart="43.00" departLane="-25973410#1_1" departPos="5.10" departSpeed="0.00" departDelay="0.00" arrival="103.00" arrivalLane="694116204#2_2" arrivalPos="45.20" arrivalSpeed="13.29" duration="60.00" routeLength="221.68" waitingTime="20.00" waitingCount="2" stopTime="0.00" timeLoss="37.86" rerouteNo="0" devices="tripinfo_VEH_23" vType="sumo_car" speedFactor="1.01" vaporized=""/>
    <tripinfo id="VEH_35" depart="60.00" departLane="-25973410#1_1" departPos="5.10" departSpeed="0.00" departDelay="0.00" arrival="105.00" arrivalLane="694116204#2_1" arrivalPos="45.20" arrivalSpeed="13.39" duration="45.00" routeLength="221.68" waitingTime="12.00" waitingCount="1" stopTime="0.00" timeLoss="25.10" rerouteNo="0" devices="tripinfo_VEH_35" vType="sumo_car" speedFactor="1.17" vaporized=""/>
    <tripinfo id="VEH_39" depart="76.00" departLane="921020465#1_1" departPos="5.10" departSpeed="0.00" departDelay="10.00" arrival="107.00" arrivalLane="183419043#1_1" arrivalPos="11.49" arrivalSpeed="10.02" duration="31.00" routeLength="172.24" waitingTime="3.00" waitingCount="3" stopTime="0.00" timeLoss="17.93" rerouteNo="0" devices="tripinfo_VEH_39" vType="sumo_car" speedFactor="1.18" vaporized=""/>
    <tripinfo id="VEH_68" depart="107.00" departLane="183049957#0_1" departPos="14.45" departSpeed="0.00" departDelay="0.00" arrival="127.00" arrivalLane="331752492#2_1" arrivalPos="66.46" arrivalSpeed="9.68" duration="20.00" routeLength="102.86" waitingTime="0.00" waitingCount="0" stopTime="0.00" timeLoss="8.32" rerouteNo="0" devices="tripinfo_VEH_68" vType="sumo_truck" speedFactor="0.95" vaporized=""/>
    <tripinfo id="VEH_75" depart="112.00" departLane="183049957#0_1" departPos="5.10" departSpeed="0.00" departDelay="1.00" arrival="129.00" arrivalLane="331752492#2_1" arrivalPos="66.46" arrivalSpeed="12.16" duration="17.00" routeLength="112.21" waitingTime="0.00" waitingCount="0" stopTime="0.00" timeLoss="8.28" rerouteNo="0" devices="tripinfo_VEH_75" vType="sumo_car" speedFactor="1.06" vaporized=""/>
    <tripinfo id="VEH_79" depart="116.00" departLane="183049957#0_1" departPos="2.30" departSpeed="0.00" departDelay="3.00" arrival="132.00" arrivalLane="331752492#2_1" arrivalPos="66.46" arrivalSpeed="13.55" duration="16.00" routeLength="115.01" waitingTime="0.00" waitingCount="0" stopTime="0.00" timeLoss="6.22" rerouteNo="0" devices="tripinfo_VEH_79" vType="sumo_motorcycle" speedFactor="0.98" vaporized=""/>
    <tripinfo id="VEH_82" depart="119.00" departLane="183049957#0_1" departPos="5.10" departSpeed="0.00" departDelay="1.00" arrival="135.00" arrivalLane="331752492#2_1" arrivalPos="66.46" arrivalSpeed="13.27" duration="16.00" routeLength="112.21" waitingTime="0.00" waitingCount="0" stopTime="0.00" timeLoss="7.08" rerouteNo="0" devices="tripinfo_VEH_82" vType="sumo_car" speedFactor="1.03" vaporized=""/>
    <tripinfo id="VEH_45" depart="95.00" departLane="921020465#1_1" departPos="5.10" departSpeed="0.00" departDelay="22.00" arrival="136.00" arrivalLane="183419043#1_1" arrivalPos="11.49" arrivalSpeed="10.83" duration="41.00" routeLength="172.24" waitingTime="13.00" waitingCount="2" stopTime="0.00" timeLoss="27.22" rerouteNo="0" devices="tripinfo_VEH_45" vType="sumo_car" speedFactor="1.04" vaporized=""/>
    <tripinfo id="VEH_54" depart="85.00" departLane="-1169441386_1" departPos="6.60" departSpeed="0.00" departDelay="0.00" arrival="136.00" arrivalLane="694116204#2_2" arrivalPos="45.20" arrivalSpeed="10.83" duration="51.00" routeLength="173.99" waitingTime="19.00" waitingCount="1" stopTime="0.00" timeLoss="34.61" rerouteNo="0" devices="tripinfo_VEH_54" vType="sumo_transporter" speedFactor="1.01" vaporized=""/>
    <tripinfo id="VEH_42" depart="81.00" departLane="921020465#1_1" departPos="5.10" departSpeed="0.00" departDelay="12.00" arrival="138.00" arrivalLane="183419043#1_1" arrivalPos="11.49" arrivalSpeed="11.19" duration="57.00" routeLength="172.24" waitingTime="22.00" waitingCount="3" stopTime="0.00" timeLoss="42.98" rerouteNo="0" devices="tripinfo_VEH_42" vType="sumo_car" speedFactor="1.03" vaporized=""/>
    <tripinfo id="VEH_24" depart="44.00" departLane="23320502_1" departPos="5.10" departSpeed="0.00" departDelay="0.00" arrival="139.00" arrivalLane="25973410#1_1" arrivalPos="32.08" arrivalSpeed="7.98" duration="95.00" routeLength="524.68" waitingTime="17.00" waitingCount="1" stopTime="0.00" timeLoss="37.07" rerouteNo="0" devices="tripinfo_VEH_24" vType="sumo_car" speedFactor="0.97" vaporized=""/>
    <tripinfo id="VEH_3" depart="5.00" departLane="-E4_1" departPos="5.10" departSpeed="0.00" departDelay="0.00" arrival="140.00" arrivalLane="-758088375#0_1" arrivalPos="24.98" arrivalSpeed="7.35" duration="135.00" routeLength="212.81" waitingTime="96.00" waitingCount="2" stopTime="0.00" timeLoss="113.24" rerouteNo="0" devices="tripinfo_VEH_3" vType="sumo_car" speedFactor="0.94" vaporized=""/>
    <tripinfo id="VEH_88" depart="124.00" departLane="183049957#0_1" departPos="5.10" departSpeed="0.00" departDelay="0.00" arrival="140.00" arrivalLane="331752492#2_1" arrivalPos="66.46" arrivalSpeed="13.46" duration="16.00" routeLength="112.21" waitingTime="0.00" waitingCount="0" stopTime="0.00" timeLoss="6.86" rerouteNo="0" devices="tripinfo_VEH_88" vType="sumo_car" speedFactor="1.00" vaporized=""/>
    <tripinfo id="VEH_14" depart="23.00" departLane="921020465#1_1" departPos="5.10" departSpeed="0.00" departDelay="0.00" arrival="141.00" arrivalLane="E4_1" arrivalPos="50.96" arrivalSpeed="12.04" duration="118.00" routeLength="425.49" waitingTime="58.00" waitingCount="2" stopTime="0.00" timeLoss="80.61" rerouteNo="0" devices="tripinfo_VEH_14" vType="sumo_car" speedFactor="1.05" vaporized=""/>
    <tripinfo id="VEH_44" depart="91.00" departLane="921020465#1_1" departPos="5.10" departSpeed="0.00" departDelay="20.00" arrival="141.00" arrivalLane="183419043#1_1" arrivalPos="11.49" arrivalSpeed="11.32" duration="50.00" routeLength="172.24" waitingTime="18.00" waitingCount="4" stopTime="0.00" timeLoss="36.93" rerouteNo="0" devices="tripinfo_VEH_44" vType="sumo_car" speedFactor="1.09" vaporized=""/>
    <tripinfo id="VEH_18" depart="28.00" departLane="921020465#1_1" departPos="5.10" departSpeed="0.00" departDelay="0.00" arrival="144.00" arrivalLane="E4_1" arrivalPos="50.96" arrivalSpeed="11.62" duration="116.00" routeLength="425.49" waitingTime="50.00" waitingCount="2" stopTime="0.00" timeLoss="71.76" rerouteNo="0" devices="tripinfo_VEH_18" vType="sumo_car" speedFactor="0.88" vaporized=""/>
    <tripinfo id="VEH_55" depart="86.00" departLane="758088375#0_1" departPos="5.10" departSpeed="0.00" departDelay="0.00" arrival="149.00" arrivalLane="25973410#1_1" arrivalPos="32.08" arrivalSpeed="8.66" duration="63.00" routeLength="75.29" waitingTime="46.00" waitingCount="1" stopTime="0.00" timeLoss="54.70" rerouteNo="0" devices="tripinfo_VEH_55" vType="sumo_car" speedFactor="1.10" vaporized=""/>
    <tripinfo id="VEH_98" depart="135.00" departLane="183049957#0_1" departPos="5.10" departSpeed="0.00" departDelay="0.00" arrival="151.00" arrivalLane="331752492#2_1" arrivalPos="66.46" arrivalSpeed="13.43" duration="16.00" routeLength="112.21" waitingTime="0.00" waitingCount="0" stopTime="0.00" timeLoss="7.30" rerouteNo="0" devices="tripinfo_VEH_98" vType="sumo_car" speedFactor="1.01" vaporized=""/>
    <tripinfo id="VEH_49" depart="127.00" departLane="921020465#1_1" departPos="5.10" departSpeed="0.00" departDelay="49.00" arrival="152.00" arrivalLane="183419043#1_1" arrivalPos="11.49" arrivalSpeed="11.88" duration="25.00" routeLength="172.24" waitingTime="2.00" waitingCount="2" stopTime="0.00" timeLoss="9.95" rerouteNo="0" devices="tripinfo_VEH_49" vType="sumo_car" speedFactor="0.90" vaporized=""/>
    <tripinfo id="VEH_101" depart="139.00" departLane="183049957#0_1" departPos="5.10" departSpeed="0.00" departDelay="2.00" arrival="154.00" arrivalLane="331752492#2_1" arrivalPos="66.46" arrivalSpeed="13.43" duration="15.00" routeLength="112.21" waitingTime="0.00" waitingCount="0" stopTime="0.00" timeLoss="6.50" rerouteNo="0" devices="tripinfo_VEH_101" vType="sumo_car" speedFactor="1.10" vaporized=""/>
    <tripinfo id="VEH_106" depart="144.00" departLane="758088375#0_1" departPos="5.10" departSpeed="0.00" departDelay="0.00" arrival="157.00" arrivalLane="25973410#1_1" arrivalPos="32.08" arrivalSpeed="7.41" duration="13.00" routeLength="75.29" waitingTime="0.00" waitingCount="0" stopTime="0.00" timeLoss="2.57" rerouteNo="0" devices="tripinfo_VEH_106" vType="sumo_car" speedFactor="0.89" vaporized=""/>
    <tripinfo id="VEH_100" depart="137.00" departLane="-183419042#1_1" departPos="5.10" departSpeed="0.00" departDelay="0.00" arrival="162.00" arrivalLane="331752492#2_1" arrivalPos="66.46" arrivalSpeed="13.68" duration="25.00" routeLength="268.79" waitingTime="0.00" waitingCount="0" stopTime="0.00" timeLoss="5.43" rerouteNo="0" devices="tripinfo_VEH_100" vType="sumo_car" speedFactor="1.12" vaporized=""/>
    <tripinfo id="VEH_112" depart="150.00" departLane="183049957#0_1" departPos="5.10" departSpeed="0.00" departDelay="0.00" arrival="167.00" arrivalLane="331752492#2_1" arrivalPos="66.46" arrivalSpeed="12.87" duration="17.00" routeLength="112.21" waitingTime="0.00" waitingCount="0" stopTime="0.00" timeLoss="7.90" rerouteNo="0" devices="tripinfo_VEH_112" vType="sumo_car" speedFactor="0.93" vaporized=""/>
    <tripinfo id="VEH_105" depart="145.00" departLane="-1169441386_1" departPos="5.10" departSpeed="0.00" departDelay="3.00" arrival="171.00" arrivalLane="183419043#1_1" arrivalPos="11.49" arrivalSpeed="10.95" duration="26.00" routeLength="129.14" waitingTime="0.00" waitingCount="0" stopTime="0.00" timeLoss="15.94" rerouteNo="0" devices="tripinfo_VEH_105" vType="sumo_car" speedFactor="0.95" vaporized=""/>
    <tripinfo id="VEH_130" depart="171.00" departLane="183049957#0_1" departPos="5.10" departSpeed="0.00" departDelay="0.00" arrival="188.00" arrivalLane="331752492#2_1" arrivalPos="66.46" arrivalSpeed="13.51" duration="17.00" routeLength="112.21" waitingTime="0.00" waitingCount="0" stopTime="0.00" timeLoss="7.78" rerouteNo="0" devices="tripinfo_VEH_130" vType="sumo_car" speedFactor="1.12" vaporized=""/>
    <tripinfo id="VEH_4" depart="9.00" departLane="-183419042#1_1" departPos="5.10" departSpeed="0.00" departDelay="0.00" arrival="192.00" arrivalLane="-E13_1" arrivalPos="59.59" arrivalSpeed="13.22" duration="183.00" routeLength="1151.72" waitingTime="42.00" waitingCount="2" stopTime="0.00" timeLoss="65.31" rerouteNo="0" devices="tripinfo_VEH_4" vType="sumo_car" speedFactor="1.01" vaporized=""/>
    <tripinfo id="VEH_8" depart="15.00" departLane="-183419042#1_1" departPos="2.30" departSpeed="0.00" departDelay="0.00" arrival="194.00" arrivalLane="-E13_1" arrivalPos="59.59" arrivalSpeed="13.96" duration="179.00" routeLength="1154.52" waitingTime="37.00" waitingCount="2" stopTime="0.00" timeLoss="65.07" rerouteNo="0" devices="tripinfo_VEH_8" vType="sumo_motorcycle" speedFactor="1.05" vaporized=""/>
    <tripinfo id="VEH_136" depart="182.00" departLane="183049957#0_1" departPos="5.10" departSpeed="0.00" departDelay="0.00" arrival="197.00" arrivalLane="331752492#2_1" arrivalPos="66.46" arrivalSpeed="13.61" duration="15.00" routeLength="112.21" waitingTime="0.00" waitingCount="0" stopTime="0.00" timeLoss="6.25" rerouteNo="0" devices="tripinfo_VEH_136" vType="sumo_car" speedFactor="1.23" vaporized=""/>
    <tripinfo id="VEH_12" depart="22.00" departLane="1162834479#1_1" departPos="0.20" departSpeed="0.00" departDelay="0.00" arrival="198.00" arrivalLane="694116204#2_1" arrivalPos="45.20" arrivalSpeed="9.65" duration="176.00" routeLength="992.43" waitingTime="31.00" waitingCount="2" stopTime="0.00" timeLoss="66.09" rerouteNo="0" devices="tripinfo_VEH_12" vType="sumo_truck" speedFactor="1.05" vaporized=""/>
    <tripinfo id="VEH_91" depart="130.00" departLane="-E4_1" departPos="5.10" departSpeed="0.00" departDelay="3.00" arrival="203.00" arrivalLane="694116204#2_1" arrivalPos="45.20" arrivalSpeed="13.43" duration="73.00" routeLength="370.12" waitingTime="17.00" waitingCount="2" stopTime="0.00" timeLoss="39.20" rerouteNo="0" devices="tripinfo_VEH_91" vType="sumo_car" speedFactor="1.02" vaporized=""/>
    <tripinfo id="VEH_138" depart="187.00" departLane="183049957#0_1" departPos="14.45" departSpeed="0.00" departDelay="3.00" arrival="206.00" arrivalLane="331752492#2_1" arrivalPos="66.46" arrivalSpeed="9.71" duration="19.00" routeLength="102.86" waitingTime="0.00" waitingCount="0" stopTime="0.00" timeLoss="8.32" rerouteNo="0" devices="tripinfo_VEH_138" vType="sumo_truck" speedFactor="1.06" vaporized=""/>
    <tripinfo id="VEH_140" depart="192.00" departLane="183049957#0_1" departPos="5.10" departSpeed="0.00" departDelay="3.00" arrival="209.00" arrivalLane="331752492#2_1" arrivalPos="66.46" arrivalSpeed="13.42" duration="17.00" routeLength="112.21" waitingTime="0.00" waitingCount="0" stopTime="0.00" timeLoss="7.86" rerouteNo="0" devices="tripinfo_VEH_140" vType="sumo_car" speedFactor="1.00" vaporized=""/>
    <tripinfo id="VEH_94" depart="137.00" departLane="-E4_1" departPos="5.10" departSpeed="0.00" departDelay="6.00" arrival="210.00" arrivalLane="694116204#2_1" arrivalPos="45.20" arrivalSpeed="10.89" duration="73.00" routeLength="370.12" waitingTime="12.00" waitingCount="1" stopTime="0.00" timeLoss="31.00" rerouteNo="0" devices="tripinfo_VEH_94" vType="sumo_car" speedFactor="0.83" vaporized=""/>
    <tripinfo id="VEH_96" depart="141.00" departLane="-E4_1" departPos="5.10" departSpeed="0.00" departDelay="8.00" arrival="211.00" arrivalLane="694116204#2_1" arrivalPos="45.20" arrivalSpeed="12.33" duration="70.00" routeLength="370.12" waitingTime="10.00" waitingCount="1" stopTime="0.00" timeLoss="37.29" rerouteNo="0" devices="tripinfo_VEH_96" vType="sumo_car" speedFactor="1.09" vaporized=""/>
    <tripinfo id="VEH_142" depart="196.00" departLane="183049957#0_1" departPos="5.10" departSpeed="0.00" departDelay="5.00" arrival="213.00" arrivalLane="331752492#2_1" arrivalPos="66.46" arrivalSpeed="13.14" duration="17.00" routeLength="112.21" waitingTime="0.00" waitingCount="0" stopTime="0.00" timeLoss="8.32" rerouteNo="0" devices="tripinfo_VEH_142" vType="sumo_car" speedFactor="1.11" vaporized=""/>
    <tripinfo id="VEH_28" depart="50.00" departLane="1162834479#1_1" departPos="0.20" departSpeed="0.00" departDelay="0.00" arrival="217.00" arrivalLane="183419043#1_1" arrivalPos="11.49" arrivalSpeed="9.79" duration="167.00" routeLength="931.93" waitingTime="34.00" waitingCount="1" stopTime="0.00" timeLoss="54.81" rerouteNo="0" devices="tripinfo_VEH_28" vType="sumo_car" speedFactor="0.92" vaporized=""/>
    <tripinfo id="VEH_149" depart="201.00" departLane="183049957#0_1" departPos="6.60" departSpeed="0.00" departDelay="0.00" arrival="219.00" arrivalLane="331752492#2_1" arrivalPos="66.46" arrivalSpeed="10.69" duration="18.00" routeLength="110.71" waitingTime="0.00" waitingCount="0" stopTime="0.00" timeLoss="6.85" rerouteNo="0" devices="tripinfo_VEH_149" vType="sumo_transporter" speedFactor="1.00" vaporized=""/>
    <tripinfo id="VEH_62" depart="99.00" departLane="E13_1" departPos="5.10" departSpeed="0.00" departDelay="0.00" arrival="223.00" arrivalLane="E4_1" arrivalPos="50.96" arrivalSpeed="12.81" duration="124.00" routeLength="789.50" waitingTime="21.00" waitingCount="1" stopTime="0.00" timeLoss="43.88" rerouteNo="0" devices="tripinfo_VEH_62" vType="sumo_car" speedFactor="1.08" vaporized=""/>
    <tripinfo id="VEH_110" depart="155.00" departLane="-1169441386_1" departPos="5.10" departSpeed="0.00" departDelay="8.00" arrival="227.00" arrivalLane="183419043#1_1" arrivalPos="11.49" arrivalSpeed="11.56" duration="72.00" routeLength="129.14" waitingTime="48.00" waitingCount="1" stopTime="0.00" timeLoss="62.48" rerouteNo="0" devices="tripinfo_VEH_110" vType="sumo_car" speedFactor="1.06" vaporized=""/>
    <tripinfo id="VEH_84" depart="122.00" departLane="-E4_1" departPos="5.10" departSpeed="0.00" departDelay="0.00" arrival="229.00" arrivalLane="-758088375#0_1" arrivalPos="24.98" arrivalSpeed="8.08" duration="107.00" routeLength="212.81" waitingTime="68.00" waitingCount="2" stopTime="0.00" timeLoss="85.95" rerouteNo="0" devices="tripinfo_VEH_84" vType="sumo_car" speedFactor="1.02" vaporized=""/>
    <tripinfo id="VEH_2" depart="1.00" departLane="-E4_1" departPos="5.10" departSpeed="0.00" departDelay="0.00" arrival="232.00" arrivalLane="-1162834479#1_1" arrivalPos="0.20" arrivalSpeed="8.59" duration="231.00" routeLength="746.01" waitingTime="124.00" waitingCount="3" stopTime="0.00" timeLoss="151.83" rerouteNo="0" devices="tripinfo_VEH_2" vType="sumo_car" speedFactor="1.06" vaporized=""/>
    <tripinfo id="VEH_32" depart="57.00" departLane="921020465#1_1" departPos="5.10" departSpeed="0.00" departDelay="1.00" arrival="232.00" arrivalLane="E4_1" arrivalPos="50.96" arrivalSpeed="12.73" duration="175.00" routeLength="425.49" waitingTime="105.00" waitingCount="3" stopTime="0.00" timeLoss="139.36" rerouteNo="0" devices="tripinfo_VEH_32" vType="sumo_car" speedFactor="1.18" vaporized=""/>
    <tripinfo id="VEH_89" depart="126.00" departLane="-E4_1" departPos="5.10" departSpeed="0.00" departDelay="1.00" arrival="232.00" arrivalLane="-758088375#0_1" arrivalPos="24.98" arrivalSpeed="8.47" duration="106.00" routeLength="212.81" waitingTime="64.00" waitingCount="2" stopTime="0.00" timeLoss="85.25" rerouteNo="0" devices="tripinfo_VEH_89" vType="sumo_car" speedFactor="1.04" vaporized=""/>
    <tripinfo id="VEH_103" depart="139.00" departLane="-1169441386_1" departPos="6.60" departSpeed="0.00" departDelay="0.00" arrival="232.00" arrivalLane="694116204#2_2" arrivalPos="45.20" arrivalSpeed="11.03" duration="93.00" routeLength="173.99" waitingTime="61.00" waitingCount="1" stopTime="0.00" timeLoss="76.71" rerouteNo="0" devices="tripinfo_VEH_103" vType="sumo_transporter" speedFactor="0.98" vaporized=""/>
    <tripinfo id="VEH_144" depart="194.00" departLane="-1169441386_1" departPos="5.10" departSpeed="0.00" departDelay="2.00" arrival="233.00" arrivalLane="183419043#1_1" arrivalPos="11.49" arrivalSpeed="11.62" duration="39.00" routeLength="129.14" waitingTime="13.00" waitingCount="1" stopTime="0.00" timeLoss="28.45" rerouteNo="0" devices="tripinfo_VEH_144" vType="sumo_car" speedFactor="0.94" vaporized=""/>
    <tripinfo id="VEH_56" depart="87.00" departLane="758088375#0_1" departPos="5.10" departSpeed="0.00" departDelay="0.00" arrival="234.00" arrivalLane="E4_1" arrivalPos="50.96" arrivalSpeed="12.75" duration="147.00" routeLength="211.40" waitingTime="107.00" waitingCount="2" stopTime="0.00" timeLoss="126.88" rerouteNo="0" devices="tripinfo_VEH_56" vType="sumo_car" speedFactor="1.00" vaporized=""/>
    <tripinfo id="VEH_104" depart="143.00" departLane="-1169441386_1" departPos="5.10" departSpeed="0.00" departDelay="2.00" arrival="234.00" arrivalLane="694116204#2_2" arrivalPos="45.20" arrivalSpeed="12.51" duration="91.00" routeLength="175.49" waitingTime="59.00" waitingCount="1" stopTime="0.00" timeLoss="77.20" rerouteNo="0" devices="tripinfo_VEH_104" vType="sumo_car" speedFactor="0.97" vaporized=""/>
    <tripinfo id="VEH_107" depart="149.00" departLane="-1169441386_1" departPos="5.10" departSpeed="0.00" departDelay="5.00" arrival="235.00" arrivalLane="694116204#2_2" arrivalPos="45.20" arrivalSpeed="12.19" duration="86.00" routeLength="175.49" waitingTime="56.00" waitingCount="1" stopTime="0.00" timeLoss="73.37" rerouteNo="0" devices="tripinfo_VEH_107" vType="sumo_car" speedFactor="1.07" vaporized=""/>
    <tripinfo id="VEH_143" depart="192.00" departLane="-1169441386_1" departPos="5.10" departSpeed="0.00" departDelay="0.00" arrival="237.00" arrivalLane="694116204#2_2" arrivalPos="45.20" arrivalSpeed="13.21" duration="45.00" routeLength="175.49" waitingTime="15.00" waitingCount="1" stopTime="0.00" timeLoss="32.11" rerouteNo="0" devices="tripinfo_VEH_143" vType="sumo_car" speedFactor="1.16" vaporized=""/>
    <tripinfo id="VEH_164" depart="222.00" departLane="183049957#0_1" departPos="5.10" departSpeed="0.00" departDelay="0.00" arrival="238.00" arrivalLane="331752492#2_1" arrivalPos="66.46" arrivalSpeed="13.33" duration="16.00" routeLength="112.21" waitingTime="0.00" waitingCount="0" stopTime="0.00" timeLoss="7.17" rerouteNo="0" devices="tripinfo_VEH_164" vType="sumo_car" speedFactor="0.99" vaporized=""/>
    <tripinfo id="VEH_117" depart="213.00" departLane="921020465#1_1" departPos="6.60" departSpeed="0.00" departDelay="55.00" arrival="239.00" arrivalLane="183419043#1_1" arrivalPos="11.49" arrivalSpeed="10.75" duration="26.00" routeLength="170.74" waitingTime="1.00" waitingCount="1" stopTime="0.00" timeLoss="9.64" rerouteNo="0" devices="tripinfo_VEH_117" vType="sumo_transporter" speedFactor="0.96" vaporized=""/>
    <tripinfo id="VEH_118" depart="216.00" departLane="921020465#1_1" departPos="5.10" departSpeed="0.00" departDelay="56.00" arrival="242.00" arrivalLane="183419043#1_1" arrivalPos="11.49" arrivalSpeed="10.82" duration="26.00" routeLength="172.24" waitingTime="2.00" waitingCount="1" stopTime="0.00" timeLoss="13.09" rerouteNo="0" devices="tripinfo_VEH_118" vType="sumo_car" speedFactor="1.18" vaporized=""/>
    <tripinfo id="VEH_170" depart="226.00" departLane="183049957#0_1" departPos="5.10" departSpeed="0.00" departDelay="1.00" arrival="242.00" arrivalLane="331752492#2_1" arrivalPos="66.46" arrivalSpeed="13.64" duration="16.00" routeLength="112.21" waitingTime="0.00" waitingCount="0" stopTime="0.00" timeLoss="6.61" rerouteNo="0" devices="tripinfo_VEH_170" vType="sumo_car" speedFactor="0.98" vaporized=""/>
    <tripinfo id="VEH_171" depart="230.00" departLane="183049957#0_1" departPos="5.10" departSpeed="0.00" departDelay="4.00" arrival="246.00" arrivalLane="331752492#2_1" arrivalPos="66.46" arrivalSpeed="13.00" duration="16.00" routeLength="112.21" waitingTime="0.00" waitingCount="0" stopTime="0.00" timeLoss="6.48" rerouteNo="0" devices="tripinfo_VEH_171" vType="sumo_car" speedFactor="0.94" vaporized=""/>