<?xml version="1.0" encoding="UTF-8"?>

<!-- generated on 2025-06-28 11:06:28 by Eclipse SUMO GUI Version 1.19.0
<configuration xmlns:xsi="http://www.w3.org/2001/XMLSchema-instance" xsi:noNamespaceSchemaLocation="http://sumo.dlr.de/xsd/sumoConfiguration.xsd">

    <input>
        <net-file value="C:\Users\kriehl\Documents\GitHub\fair_scosca\model\Network.net.xml"/>
        <route-files value="C:\Users\kriehl\Documents\GitHub\fair_scosca\model\CarRoutes.rou.xml"/>
        <additional-files value="C:\Users\kriehl\Documents\GitHub\fair_scosca\model\BusStops.add.xml"/>
    </input>

    <output>
        <tripinfo-output value="C:\Users\kriehl\Documents\GitHub\fair_scosca\model\logs/TripInfos.xml"/>
    </output>

    <time>
        <begin value="0"/>
        <end value="86400"/>
        <step-length value="1"/>
    </time>

    <processing>
        <ignore-junction-blocker value="0.1"/>
        <time-to-teleport value="-1"/>
    </processing>

    <report>
        <verbose value="true"/>
        <no-step-log value="true"/>
    </report>

    <emissions>
        <device.emissions.period value="10"/>
    </emissions>

</configuration>
-->

<tripinfos xmlns:xsi="http://www.w3.org/2001/XMLSchema-instance" xsi:noNamespaceSchemaLocation="http://sumo.dlr.de/xsd/tripinfo_file.xsd">
</tripinfos>
