<?xml version="1.0" encoding="UTF-8"?>

<!-- generated on 2025-06-28 17:17:00 by Eclipse SUMO sumo Version 1.19.0
<configuration xmlns:xsi="http://www.w3.org/2001/XMLSchema-instance" xsi:noNamespaceSchemaLocation="http://sumo.dlr.de/xsd/sumoConfiguration.xsd">

    <input>
        <net-file value="../model/Network.net.xml"/>
        <route-files value="../model/CarRoutes.rou.xml"/>
        <additional-files value="../model/BusStops.add.xml"/>
    </input>

    <output>
        <summary-output value="../model/logs/Log_summary.xml"/>
        <summary-output.period value="300"/>
        <tripinfo-output value="../model/logs/TripInfos.xml"/>
    </output>

    <time>
        <begin value="0"/>
        <end value="86400"/>
        <step-length value="1"/>
    </time>

    <processing>
        <ignore-junction-blocker value="0.1"/>
        <time-to-teleport value="-1"/>
        <waiting-time-memory value="6000"/>
    </processing>

    <report>
        <verbose value="true"/>
        <no-step-log value="true"/>
    </report>

    <traci_server>
        <remote-port value="55345"/>
    </traci_server>

    <gui_only>
        <quit-on-end value="true"/>
        <start value="true"/>
    </gui_only>

</configuration>
-->

<tripinfos xmlns:xsi="http://www.w3.org/2001/XMLSchema-instance" xsi:noNamespaceSchemaLocation="http://sumo.dlr.de/xsd/tripinfo_file.xsd">
    <tripinfo id="VEH_5" depart="12.00" departLane="183049957#0_1" departPos="5.10" departSpeed="0.00" departDelay="0.00" arrival="28.00" arrivalLane="331752492#2_1" arrivalPos="66.46" arrivalSpeed="13.55" duration="16.00" routeLength="112.21" waitingTime="0.00" waitingCount="0" stopTime="0.00" timeLoss="6.99" rerouteNo="0" devices="tripinfo_VEH_5" vType="sumo_car" speedFactor="1.08" vaporized=""/>
    <tripinfo id="VEH_7" depart="16.00" departLane="183049957#0_1" departPos="5.10" departSpeed="0.00" departDelay="1.00" arrival="33.00" arrivalLane="331752492#2_1" arrivalPos="66.46" arrivalSpeed="11.25" duration="17.00" routeLength="112.21" waitingTime="0.00" waitingCount="0" stopTime="0.00" timeLoss="6.20" rerouteNo="0" devices="tripinfo_VEH_7" vType="sumo_car" speedFactor="0.83" vaporized=""/>
    <tripinfo id="VEH_9" depart="20.00" departLane="183049957#0_1" departPos="5.10" departSpeed="0.00" departDelay="3.00" arrival="37.00" arrivalLane="331752492#2_1" arrivalPos="66.46" arrivalSpeed="12.26" duration="17.00" routeLength="112.21" waitingTime="0.00" waitingCount="0" stopTime="0.00" timeLoss="7.45" rerouteNo="0" devices="tripinfo_VEH_9" vType="sumo_car" speedFactor="0.89" vaporized=""/>
    <tripinfo id="VEH_11" depart="24.00" departLane="183049957#0_1" departPos="5.10" departSpeed="0.00" departDelay="3.00" arrival="41.00" arrivalLane="331752492#2_1" arrivalPos="66.46" arrivalSpeed="11.35" duration="17.00" routeLength="112.21" waitingTime="0.00" waitingCount="0" stopTime="0.00" timeLoss="6.31" rerouteNo="0" devices="tripinfo_VEH_11" vType="sumo_car" speedFactor="0.86" vaporized=""/>
    <tripinfo id="VEH_17" depart="28.00" departLane="183049957#0_1" departPos="5.10" departSpeed="0.00" departDelay="1.00" arrival="44.00" arrivalLane="331752492#2_1" arrivalPos="66.46" arrivalSpeed="12.38" duration="16.00" routeLength="112.21" waitingTime="0.00" waitingCount="0" stopTime="0.00" timeLoss="6.40" rerouteNo="0" devices="tripinfo_VEH_17" vType="sumo_car" speedFactor="0.93" vaporized=""/>
    <tripinfo id="VEH_20" depart="33.00" departLane="183049957#0_1" departPos="5.10" departSpeed="0.00" departDelay="0.00" arrival="49.00" arrivalLane="331752492#2_1" arrivalPos="66.46" arrivalSpeed="12.65" duration="16.00" routeLength="112.21" waitingTime="0.00" waitingCount="0" stopTime="0.00" timeLoss="6.68" rerouteNo="0" devices="tripinfo_VEH_20" vType="sumo_car" speedFactor="0.94" vaporized=""/>
    <tripinfo id="VEH_22" depart="42.00" departLane="183049957#0_1" departPos="2.30" departSpeed="0.00" departDelay="0.00" arrival="57.00" arrivalLane="331752492#2_1" arrivalPos="66.46" arrivalSpeed="14.08" duration="15.00" routeLength="115.01" waitingTime="0.00" waitingCount="0" stopTime="0.00" timeLoss="6.35" rerouteNo="0" devices="tripinfo_VEH_22" vType="sumo_motorcycle" speedFactor="1.02" vaporized=""/>
    <tripinfo id="VEH_16" depart="27.00" departLane="758088375#0_1" departPos="5.10" departSpeed="0.00" departDelay="0.00" arrival="60.00" arrivalLane="25973410#1_1" arrivalPos="32.08" arrivalSpeed="8.22" duration="33.00" routeLength="75.29" waitingTime="15.00" waitingCount="1" stopTime="0.00" timeLoss="23.32" rerouteNo="0" devices="tripinfo_VEH_16" vType="sumo_car" speedFactor="0.99" vaporized=""/>
    <tripinfo id="VEH_10" depart="19.00" departLane="-25973410#1_1" departPos="5.10" departSpeed="0.00" departDelay="1.00" arrival="61.00" arrivalLane="-758088375#0_1" arrivalPos="24.98" arrivalSpeed="7.45" duration="42.00" routeLength="75.26" waitingTime="24.00" waitingCount="1" stopTime="0.00" timeLoss="32.04" rerouteNo="0" devices="tripinfo_VEH_10" vType="sumo_car" speedFactor="0.94" vaporized=""/>
    <tripinfo id="VEH_13" depart="23.00" departLane="-E4_1" departPos="5.10" departSpeed="0.00" departDelay="0.00" arrival="61.00" arrivalLane="-E2_1" arrivalPos="20.13" arrivalSpeed="10.28" duration="38.00" routeLength="88.22" waitingTime="18.00" waitingCount="1" stopTime="0.00" timeLoss="31.57" rerouteNo="0" devices="tripinfo_VEH_13" vType="sumo_car" speedFactor="1.03" vaporized=""/>
    <tripinfo id="VEH_26" depart="47.00" departLane="-E4_1" departPos="5.10" departSpeed="0.00" departDelay="0.00" arrival="64.00" arrivalLane="-E2_1" arrivalPos="20.13" arrivalSpeed="10.51" duration="17.00" routeLength="88.22" waitingTime="0.00" waitingCount="0" stopTime="0.00" timeLoss="8.82" rerouteNo="0" devices="tripinfo_VEH_26" vType="sumo_car" speedFactor="0.83" vaporized=""/>
    <tripinfo id="VEH_15" depart="24.00" departLane="-183419042#1_1" departPos="5.10" departSpeed="0.00" departDelay="0.00" arrival="73.00" arrivalLane="331752492#2_1" arrivalPos="66.46" arrivalSpeed="13.44" duration="49.00" routeLength="268.79" waitingTime="16.00" waitingCount="1" stopTime="0.00" timeLoss="29.19" rerouteNo="0" devices="tripinfo_VEH_15" vType="sumo_car" speedFactor="1.12" vaporized=""/>
    <tripinfo id="VEH_40" depart="69.00" departLane="183049957#0_1" departPos="5.10" departSpeed="0.00" departDelay="0.00" arrival="84.00" arrivalLane="331752492#2_1" arrivalPos="66.46" arrivalSpeed="13.39" duration="15.00" routeLength="112.21" waitingTime="0.00" waitingCount="0" stopTime="0.00" timeLoss="6.42" rerouteNo="0" devices="tripinfo_VEH_40" vType="sumo_car" speedFactor="1.10" vaporized=""/>
    <tripinfo id="VEH_46" depart="74.00" departLane="-1169441386_1" departPos="5.10" departSpeed="0.00" departDelay="0.00" arrival="91.00" arrivalLane="183419043#1_1" arrivalPos="11.49" arrivalSpeed="13.58" duration="17.00" routeLength="129.14" waitingTime="0.00" waitingCount="0" stopTime="0.00" timeLoss="6.93" rerouteNo="0" devices="tripinfo_VEH_46" vType="sumo_car" speedFactor="1.04" vaporized=""/>
    <tripinfo id="VEH_53" depart="85.00" departLane="183049957#0_1" departPos="5.10" departSpeed="0.00" departDelay="0.00" arrival="100.00" arrivalLane="331752492#2_1" arrivalPos="66.46" arrivalSpeed="13.89" duration="15.00" routeLength="112.21" waitingTime="0.00" waitingCount="0" stopTime="0.00" timeLoss="6.25" rerouteNo="0" devices="tripinfo_VEH_53" vType="sumo_car" speedFactor="1.17" vaporized=""/>
    <tripinfo id="VEH_6" depart="15.00" departLane="-25973410#1_1" departPos="5.10" departSpeed="0.00" departDelay="0.00" arrival="102.00" arrivalLane="694116204#2_1" arrivalPos="45.20" arrivalSpeed="13.53" duration="87.00" routeLength="221.68" waitingTime="49.00" waitingCount="2" stopTime="0.00" timeLoss="65.68" rerouteNo="0" devices="tripinfo_VEH_6" vType="sumo_car" speedFactor="1.03" vaporized=""/>
    <tripinfo id="VEH_23" depart="43.00" departLane="-25973410#1_1" departPos="5.10" departSpeed="0.00" departDelay="0.00" arrival="103.00" arrivalLane="694116204#2_1" arrivalPos="45.20" arrivalSpeed="13.64" duration="60.00" routeLength="221.68" waitingTime="20.00" waitingCount="2" stopTime="0.00" timeLoss="37.71" rerouteNo="0" devices="tripinfo_VEH_23" vType="sumo_car" speedFactor="1.01" vaporized=""/>
    <tripinfo id="VEH_35" depart="60.00" departLane="-25973410#1_1" departPos="5.10" departSpeed="0.00" departDelay="0.00" arrival="105.00" arrivalLane="694116204#2_1" arrivalPos="45.20" arrivalSpeed="13.79" duration="45.00" routeLength="221.68" waitingTime="12.00" waitingCount="1" stopTime="0.00" timeLoss="25.03" rerouteNo="0" devices="tripinfo_VEH_35" vType="sumo_car" speedFactor="1.17" vaporized=""/>
    <tripinfo id="VEH_68" depart="107.00" departLane="183049957#0_1" departPos="6.60" departSpeed="0.00" departDelay="0.00" arrival="126.00" arrivalLane="331752492#2_1" arrivalPos="66.46" arrivalSpeed="10.86" duration="19.00" routeLength="110.71" waitingTime="0.00" waitingCount="0" stopTime="0.00" timeLoss="8.64" rerouteNo="0" devices="tripinfo_VEH_68" vType="sumo_transporter" speedFactor="0.95" vaporized=""/>
    <tripinfo id="VEH_75" depart="112.00" departLane="183049957#0_1" departPos="5.10" departSpeed="0.00" departDelay="1.00" arrival="128.00" arrivalLane="331752492#2_1" arrivalPos="66.46" arrivalSpeed="13.07" duration="16.00" routeLength="112.21" waitingTime="0.00" waitingCount="0" stopTime="0.00" timeLoss="7.11" rerouteNo="0" devices="tripinfo_VEH_75" vType="sumo_car" speedFactor="1.06" vaporized=""/>
    <tripinfo id="VEH_54" depart="85.00" departLane="-1169441386_1" departPos="5.10" departSpeed="0.00" departDelay="0.00" arrival="133.00" arrivalLane="694116204#2_2" arrivalPos="45.20" arrivalSpeed="13.60" duration="48.00" routeLength="175.49" waitingTime="20.00" waitingCount="1" stopTime="0.00" timeLoss="34.66" rerouteNo="0" devices="tripinfo_VEH_54" vType="sumo_car" speedFactor="1.02" vaporized=""/>
    <tripinfo id="VEH_39" depart="79.00" departLane="921020465#1_1" departPos="5.10" departSpeed="0.00" departDelay="13.00" arrival="134.00" arrivalLane="183419043#1_1" arrivalPos="11.49" arrivalSpeed="11.13" duration="55.00" routeLength="172.24" waitingTime="18.00" waitingCount="4" stopTime="0.00" timeLoss="41.58" rerouteNo="0" devices="tripinfo_VEH_39" vType="sumo_car" speedFactor="1.18" vaporized=""/>
    <tripinfo id="VEH_79" depart="116.00" departLane="183049957#0_1" departPos="6.60" departSpeed="0.00" departDelay="3.00" arrival="134.00" arrivalLane="331752492#2_1" arrivalPos="66.46" arrivalSpeed="11.07" duration="18.00" routeLength="110.71" waitingTime="0.00" waitingCount="0" stopTime="0.00" timeLoss="7.20" rerouteNo="0" devices="tripinfo_VEH_79" vType="sumo_transporter" speedFactor="0.99" vaporized=""/>
    <tripinfo id="VEH_42" depart="87.00" departLane="921020465#1_1" departPos="5.10" departSpeed="0.00" departDelay="18.00" arrival="136.00" arrivalLane="183419043#1_1" arrivalPos="11.49" arrivalSpeed="11.98" duration="49.00" routeLength="172.24" waitingTime="12.00" waitingCount="3" stopTime="0.00" timeLoss="34.99" rerouteNo="0" devices="tripinfo_VEH_42" vType="sumo_car" speedFactor="1.03" vaporized=""/>
    <tripinfo id="VEH_82" depart="120.00" departLane="183049957#0_1" departPos="5.10" departSpeed="0.00" departDelay="2.00" arrival="137.00" arrivalLane="331752492#2_1" arrivalPos="66.46" arrivalSpeed="13.84" duration="17.00" routeLength="112.21" waitingTime="0.00" waitingCount="0" stopTime="0.00" timeLoss="7.99" rerouteNo="0" devices="tripinfo_VEH_82" vType="sumo_car" speedFactor="1.03" vaporized=""/>
    <tripinfo id="VEH_44" depart="105.00" departLane="921020465#1_1" departPos="5.10" departSpeed="0.00" departDelay="34.00" arrival="138.00" arrivalLane="183419043#1_1" arrivalPos="11.49" arrivalSpeed="12.95" duration="33.00" routeLength="172.24" waitingTime="5.00" waitingCount="2" stopTime="0.00" timeLoss="19.10" rerouteNo="0" devices="tripinfo_VEH_44" vType="sumo_car" speedFactor="1.09" vaporized=""/>
    <tripinfo id="VEH_24" depart="44.00" departLane="23320502_1" departPos="5.10" departSpeed="0.00" departDelay="0.00" arrival="139.00" arrivalLane="25973410#1_1" arrivalPos="32.08" arrivalSpeed="8.09" duration="95.00" routeLength="524.68" waitingTime="18.00" waitingCount="2" stopTime="0.00" timeLoss="37.03" rerouteNo="0" devices="tripinfo_VEH_24" vType="sumo_car" speedFactor="0.97" vaporized=""/>
    <tripinfo id="VEH_3" depart="5.00" departLane="-E4_1" departPos="5.10" departSpeed="0.00" departDelay="0.00" arrival="140.00" arrivalLane="-758088375#0_1" arrivalPos="24.98" arrivalSpeed="7.78" duration="135.00" routeLength="212.81" waitingTime="97.00" waitingCount="2" stopTime="0.00" timeLoss="112.24" rerouteNo="0" devices="tripinfo_VEH_3" vType="sumo_car" speedFactor="0.94" vaporized=""/>
    <tripinfo id="VEH_88" depart="124.00" departLane="183049957#0_1" departPos="5.10" departSpeed="0.00" departDelay="0.00" arrival="141.00" arrivalLane="331752492#2_1" arrivalPos="66.46" arrivalSpeed="13.16" duration="17.00" routeLength="112.21" waitingTime="0.00" waitingCount="0" stopTime="0.00" timeLoss="8.43" rerouteNo="0" devices="tripinfo_VEH_88" vType="sumo_car" speedFactor="1.00" vaporized=""/>
    <tripinfo id="VEH_14" depart="23.00" departLane="921020465#1_1" departPos="5.10" departSpeed="0.00" departDelay="0.00" arrival="142.00" arrivalLane="E4_1" arrivalPos="50.96" arrivalSpeed="13.31" duration="119.00" routeLength="425.49" waitingTime="59.00" waitingCount="2" stopTime="0.00" timeLoss="80.94" rerouteNo="0" devices="tripinfo_VEH_14" vType="sumo_car" speedFactor="1.05" vaporized=""/>
    <tripinfo id="VEH_18" depart="28.00" departLane="921020465#1_1" departPos="5.10" departSpeed="0.00" departDelay="0.00" arrival="143.00" arrivalLane="E4_1" arrivalPos="50.96" arrivalSpeed="11.82" duration="115.00" routeLength="425.49" waitingTime="51.00" waitingCount="2" stopTime="0.00" timeLoss="71.43" rerouteNo="0" devices="tripinfo_VEH_18" vType="sumo_car" speedFactor="0.88" vaporized=""/>
    <tripinfo id="VEH_55" depart="86.00" departLane="758088375#0_1" departPos="5.10" departSpeed="0.00" departDelay="0.00" arrival="149.00" arrivalLane="25973410#1_1" arrivalPos="32.08" arrivalSpeed="8.66" duration="63.00" routeLength="75.29" waitingTime="47.00" waitingCount="1" stopTime="0.00" timeLoss="54.48" rerouteNo="0" devices="tripinfo_VEH_55" vType="sumo_car" speedFactor="1.10" vaporized=""/>
    <tripinfo id="VEH_98" depart="135.00" departLane="183049957#0_1" departPos="5.10" departSpeed="0.00" departDelay="0.00" arrival="151.00" arrivalLane="331752492#2_1" arrivalPos="66.46" arrivalSpeed="13.18" duration="16.00" routeLength="112.21" waitingTime="0.00" waitingCount="0" stopTime="0.00" timeLoss="7.25" rerouteNo="0" devices="tripinfo_VEH_98" vType="sumo_car" speedFactor="1.01" vaporized=""/>
    <tripinfo id="VEH_101" depart="138.00" departLane="183049957#0_1" departPos="2.30" departSpeed="0.00" departDelay="1.00" arrival="153.00" arrivalLane="331752492#2_1" arrivalPos="66.46" arrivalSpeed="14.70" duration="15.00" routeLength="115.01" waitingTime="0.00" waitingCount="0" stopTime="0.00" timeLoss="6.96" rerouteNo="0" devices="tripinfo_VEH_101" vType="sumo_motorcycle" speedFactor="1.10" vaporized=""/>
    <tripinfo id="VEH_45" depart="120.00" departLane="921020465#1_1" departPos="15.10" departSpeed="0.00" departDelay="47.00" arrival="154.00" arrivalLane="183419043#1_1" arrivalPos="11.49" arrivalSpeed="9.99" duration="34.00" routeLength="162.24" waitingTime="0.00" waitingCount="0" stopTime="0.00" timeLoss="17.00" rerouteNo="0" devices="tripinfo_VEH_45" vType="sumo_truck" speedFactor="1.02" vaporized=""/>
    <tripinfo id="VEH_106" depart="144.00" departLane="758088375#0_1" departPos="5.10" departSpeed="0.00" departDelay="0.00" arrival="158.00" arrivalLane="25973410#1_1" arrivalPos="32.08" arrivalSpeed="6.85" duration="14.00" routeLength="75.29" waitingTime="0.00" waitingCount="0" stopTime="0.00" timeLoss="3.02" rerouteNo="0" devices="tripinfo_VEH_106" vType="sumo_car" speedFactor="0.89" vaporized=""/>
    <tripinfo id="VEH_100" depart="137.00" departLane="-183419042#1_1" departPos="5.10" departSpeed="0.00" departDelay="0.00" arrival="163.00" arrivalLane="331752492#2_1" arrivalPos="66.46" arrivalSpeed="13.41" duration="26.00" routeLength="268.79" waitingTime="0.00" waitingCount="0" stopTime="0.00" timeLoss="6.29" rerouteNo="0" devices="tripinfo_VEH_100" vType="sumo_car" speedFactor="1.12" vaporized=""/>
    <tripinfo id="VEH_112" depart="150.00" departLane="183049957#0_1" departPos="5.10" departSpeed="0.00" departDelay="0.00" arrival="167.00" arrivalLane="331752492#2_1" arrivalPos="66.46" arrivalSpeed="12.70" duration="17.00" routeLength="112.21" waitingTime="0.00" waitingCount="0" stopTime="0.00" timeLoss="6.67" rerouteNo="0" devices="tripinfo_VEH_112" vType="sumo_car" speedFactor="0.93" vaporized=""/>
    <tripinfo id="VEH_49" depart="131.00" departLane="921020465#1_1" departPos="5.10" departSpeed="0.00" departDelay="53.00" arrival="170.00" arrivalLane="183419043#1_1" arrivalPos="11.49" arrivalSpeed="10.86" duration="39.00" routeLength="172.24" waitingTime="9.00" waitingCount="2" stopTime="0.00" timeLoss="23.73" rerouteNo="0" devices="tripinfo_VEH_49" vType="sumo_car" speedFactor="0.90" vaporized=""/>
    <tripinfo id="VEH_105" depart="144.00" departLane="-1169441386_1" departPos="5.10" departSpeed="0.00" departDelay="2.00" arrival="173.00" arrivalLane="183419043#1_1" arrivalPos="11.49" arrivalSpeed="10.66" duration="29.00" routeLength="129.14" waitingTime="6.00" waitingCount="1" stopTime="0.00" timeLoss="19.12" rerouteNo="0" devices="tripinfo_VEH_105" vType="sumo_car" speedFactor="0.95" vaporized=""/>
    <tripinfo id="VEH_130" depart="171.00" departLane="183049957#0_1" departPos="5.10" departSpeed="0.00" departDelay="0.00" arrival="187.00" arrivalLane="331752492#2_1" arrivalPos="66.46" arrivalSpeed="13.51" duration="16.00" routeLength="112.21" waitingTime="0.00" waitingCount="0" stopTime="0.00" timeLoss="6.63" rerouteNo="0" devices="tripinfo_VEH_130" vType="sumo_car" speedFactor="1.12" vaporized=""/>
    <tripinfo id="VEH_4" depart="9.00" departLane="-183419042#1_1" departPos="2.30" departSpeed="0.00" departDelay="0.00" arrival="192.00" arrivalLane="-E13_1" arrivalPos="59.59" arrivalSpeed="13.39" duration="183.00" routeLength="1154.52" waitingTime="42.00" waitingCount="2" stopTime="0.00" timeLoss="65.72" rerouteNo="0" devices="tripinfo_VEH_4" vType="sumo_motorcycle" speedFactor="1.01" vaporized=""/>
    <tripinfo id="VEH_12" depart="22.00" departLane="1162834479#1_1" departPos="0.20" departSpeed="0.00" departDelay="0.00" arrival="193.00" arrivalLane="694116204#2_1" arrivalPos="45.20" arrivalSpeed="13.81" duration="171.00" routeLength="992.43" waitingTime="40.00" waitingCount="2" stopTime="0.00" timeLoss="72.08" rerouteNo="0" devices="tripinfo_VEH_12" vType="sumo_car" speedFactor="1.09" vaporized=""/>
    <tripinfo id="VEH_8" depart="15.00" departLane="-183419042#1_1" departPos="5.10" departSpeed="0.00" departDelay="0.00" arrival="194.00" arrivalLane="-E13_1" arrivalPos="59.59" arrivalSpeed="13.22" duration="179.00" routeLength="1151.72" waitingTime="36.00" waitingCount="2" stopTime="0.00" timeLoss="64.54" rerouteNo="0" devices="tripinfo_VEH_8" vType="sumo_car" speedFactor="1.05" vaporized=""/>
    <tripinfo id="VEH_136" depart="182.00" departLane="183049957#0_1" departPos="6.60" departSpeed="0.00" departDelay="0.00" arrival="199.00" arrivalLane="331752492#2_1" arrivalPos="66.46" arrivalSpeed="10.63" duration="17.00" routeLength="110.71" waitingTime="0.00" waitingCount="0" stopTime="0.00" timeLoss="6.79" rerouteNo="0" devices="tripinfo_VEH_136" vType="sumo_transporter" speedFactor="1.11" vaporized=""/>
    <tripinfo id="VEH_138" depart="186.00" departLane="183049957#0_1" departPos="5.10" departSpeed="0.00" departDelay="2.00" arrival="201.00" arrivalLane="331752492#2_1" arrivalPos="66.46" arrivalSpeed="13.17" duration="15.00" routeLength="112.21" waitingTime="0.00" waitingCount="0" stopTime="0.00" timeLoss="6.36" rerouteNo="0" devices="tripinfo_VEH_138" vType="sumo_car" speedFactor="1.12" vaporized=""/>
    <tripinfo id="VEH_140" depart="190.00" departLane="183049957#0_1" departPos="5.10" departSpeed="0.00" departDelay="1.00" arrival="206.00" arrivalLane="331752492#2_1" arrivalPos="66.46" arrivalSpeed="13.83" duration="16.00" routeLength="112.21" waitingTime="0.00" waitingCount="0" stopTime="0.00" timeLoss="6.98" rerouteNo="0" devices="tripinfo_VEH_140" vType="sumo_car" speedFactor="1.00" vaporized=""/>
    <tripinfo id="VEH_91" depart="133.00" departLane="-E4_1" departPos="15.10" departSpeed="0.00" departDelay="6.00" arrival="209.00" arrivalLane="694116204#2_1" arrivalPos="45.20" arrivalSpeed="9.96" duration="76.00" routeLength="360.12" waitingTime="14.00" waitingCount="1" stopTime="0.00" timeLoss="36.87" rerouteNo="0" devices="tripinfo_VEH_91" vType="sumo_truck" speedFactor="1.01" vaporized=""/>
    <tripinfo id="VEH_142" depart="194.00" departLane="183049957#0_1" departPos="5.10" departSpeed="0.00" departDelay="3.00" arrival="210.00" arrivalLane="331752492#2_1" arrivalPos="66.46" arrivalSpeed="13.54" duration="16.00" routeLength="112.21" waitingTime="0.00" waitingCount="0" stopTime="0.00" timeLoss="6.57" rerouteNo="0" devices="tripinfo_VEH_142" vType="sumo_car" speedFactor="1.11" vaporized=""/>
    <tripinfo id="VEH_32" depart="57.00" departLane="921020465#1_1" departPos="5.10" departSpeed="0.00" departDelay="1.00" arrival="214.00" arrivalLane="E4_1" arrivalPos="50.96" arrivalSpeed="12.42" duration="157.00" routeLength="425.49" waitingTime="88.00" waitingCount="3" stopTime="0.00" timeLoss="121.69" rerouteNo="0" devices="tripinfo_VEH_32" vType="sumo_car" speedFactor="1.18" vaporized=""/>
    <tripinfo id="VEH_94" depart="143.00" departLane="-E4_1" departPos="5.10" departSpeed="0.00" departDelay="12.00" arrival="214.00" arrivalLane="694116204#2_1" arrivalPos="45.20" arrivalSpeed="10.88" duration="71.00" routeLength="370.12" waitingTime="11.00" waitingCount="1" stopTime="0.00" timeLoss="29.12" rerouteNo="0" devices="tripinfo_VEH_94" vType="sumo_car" speedFactor="0.83" vaporized=""/>
    <tripinfo id="VEH_96" depart="147.00" departLane="-E4_1" departPos="5.10" departSpeed="0.00" departDelay="14.00" arrival="215.00" arrivalLane="694116204#2_1" arrivalPos="45.20" arrivalSpeed="12.01" duration="68.00" routeLength="370.12" waitingTime="10.00" waitingCount="1" stopTime="0.00" timeLoss="35.34" rerouteNo="0" devices="tripinfo_VEH_96" vType="sumo_car" speedFactor="1.09" vaporized=""/>
    <tripinfo id="VEH_28" depart="50.00" departLane="1162834479#1_1" departPos="0.20" departSpeed="0.00" departDelay="0.00" arrival="217.00" arrivalLane="183419043#1_1" arrivalPos="11.49" arrivalSpeed="9.64" duration="167.00" routeLength="931.93" waitingTime="36.00" waitingCount="1" stopTime="0.00" timeLoss="54.61" rerouteNo="0" devices="tripinfo_VEH_28" vType="sumo_car" speedFactor="0.92" vaporized=""/>
    <tripinfo id="VEH_149" depart="201.00" departLane="183049957#0_1" departPos="5.10" departSpeed="0.00" departDelay="0.00" arrival="217.00" arrivalLane="331752492#2_1" arrivalPos="66.46" arrivalSpeed="13.58" duration="16.00" routeLength="112.21" waitingTime="0.00" waitingCount="0" stopTime="0.00" timeLoss="6.96" rerouteNo="0" devices="tripinfo_VEH_149" vType="sumo_car" speedFactor="1.00" vaporized=""/>
    <tripinfo id="VEH_56" depart="87.00" departLane="758088375#0_1" departPos="6.60" departSpeed="0.00" departDelay="0.00" arrival="218.00" arrivalLane="E4_1" arrivalPos="50.96" arrivalSpeed="10.75" duration="131.00" routeLength="209.90" waitingTime="90.00" waitingCount="2" stopTime="0.00" timeLoss="109.59" rerouteNo="0" devices="tripinfo_VEH_56" vType="sumo_transporter" speedFactor="1.00" vaporized=""/>
    <tripinfo id="VEH_31" depart="54.00" departLane="1162834479#1_1" departPos="0.20" departSpeed="0.00" departDelay="1.00" arrival="222.00" arrivalLane="694116204#2_1" arrivalPos="45.20" arrivalSpeed="12.28" duration="168.00" routeLength="992.43" waitingTime="34.00" waitingCount="1" stopTime="0.00" timeLoss="53.84" rerouteNo="0" devices="tripinfo_VEH_31" vType="sumo_car" speedFactor="0.93" vaporized=""/>
    <tripinfo id="VEH_43" depart="101.00" departLane="921020465#1_1" departPos="6.60" departSpeed="0.00" departDelay="30.00" arrival="227.00" arrivalLane="E4_1" arrivalPos="50.96" arrivalSpeed="10.69" duration="126.00" routeLength="423.99" waitingTime="58.00" waitingCount="3" stopTime="0.00" timeLoss="82.77" rerouteNo="0" devices="tripinfo_VEH_43" vType="sumo_transporter" speedFactor="0.98" vaporized=""/>
    <tripinfo id="VEH_110" depart="153.00" departLane="-1169441386_1" departPos="5.10" departSpeed="0.00" departDelay="6.00" arrival="229.00" arrivalLane="183419043#1_1" arrivalPos="11.49" arrivalSpeed="11.17" duration="76.00" routeLength="129.14" waitingTime="48.00" waitingCount="1" stopTime="0.00" timeLoss="66.58" rerouteNo="0" devices="tripinfo_VEH_110" vType="sumo_car" speedFactor="1.06" vaporized=""/>
    <tripinfo id="VEH_103" depart="139.00" departLane="-1169441386_1" departPos="5.10" departSpeed="0.00" departDelay="0.00" arrival="232.00" arrivalLane="694116204#2_2" arrivalPos="45.20" arrivalSpeed="12.86" duration="93.00" routeLength="175.49" waitingTime="66.00" waitingCount="1" stopTime="0.00" timeLoss="79.42" rerouteNo="0" devices="tripinfo_VEH_103" vType="sumo_car" speedFactor="0.96" vaporized=""/>
    <tripinfo id="VEH_104" depart="142.00" departLane="-1169441386_1" departPos="5.10" departSpeed="0.00" departDelay="1.00" arrival="234.00" arrivalLane="694116204#2_2" arrivalPos="45.20" arrivalSpeed="13.04" duration="92.00" routeLength="175.49" waitingTime="64.00" waitingCount="1" stopTime="0.00" timeLoss="78.25" rerouteNo="0" devices="tripinfo_VEH_104" vType="sumo_car" speedFactor="0.97" vaporized=""/>
    <tripinfo id="VEH_62" depart="99.00" departLane="E13_1" departPos="5.10" departSpeed="0.00" departDelay="0.00" arrival="235.00" arrivalLane="E4_1" arrivalPos="50.96" arrivalSpeed="10.79" duration="136.00" routeLength="789.50" waitingTime="27.00" waitingCount="2" stopTime="0.00" timeLoss="56.06" rerouteNo="0" devices="tripinfo_VEH_62" vType="sumo_car" speedFactor="1.08" vaporized=""/>
    <tripinfo id="VEH_84" depart="122.00" departLane="-E4_1" departPos="5.10" departSpeed="0.00" departDelay="0.00" arrival="237.00" arrivalLane="-758088375#0_1" arrivalPos="24.98" arrivalSpeed="8.07" duration="115.00" routeLength="212.81" waitingTime="75.00" waitingCount="2" stopTime="0.00" timeLoss="94.03" rerouteNo="0" devices="tripinfo_VEH_84" vType="sumo_car" speedFactor="1.02" vaporized=""/>
    <tripinfo id="VEH_107" depart="147.00" departLane="-1169441386_1" departPos="5.10" departSpeed="0.00" departDelay="3.00" arrival="237.00" arrivalLane="694116204#2_2" arrivalPos="45.20" arrivalSpeed="13.61" duration="90.00" routeLength="175.49" waitingTime="61.00" waitingCount="1" stopTime="0.00" timeLoss="76.44" rerouteNo="0" devices="tripinfo_VEH_107" vType="sumo_car" speedFactor="1.07" vaporized=""/>
    <tripinfo id="VEH_118" depart="216.00" departLane="921020465#1_1" departPos="5.10" departSpeed="0.00" departDelay="56.00" arrival="237.00" arrivalLane="183419043#1_1" arrivalPos="11.49" arrivalSpeed="12.67" duration="21.00" routeLength="172.24" waitingTime="0.00" waitingCount="0" stopTime="0.00" timeLoss="8.07" rerouteNo="0" devices="tripinfo_VEH_118" vType="sumo_car" speedFactor="1.18" vaporized=""/>
    <tripinfo id="VEH_164" depart="222.00" departLane="183049957#0_1" departPos="5.10" departSpeed="0.00" departDelay="0.00" arrival="237.00" arrivalLane="331752492#2_1" arrivalPos="66.46" arrivalSpeed="13.68" duration="15.00" routeLength="112.21" waitingTime="0.00" waitingCount="0" stopTime="0.00" timeLoss="5.91" rerouteNo="0" devices="tripinfo_VEH_164" vType="sumo_car" speedFactor="0.99" vaporized=""/>
    <tripinfo id="VEH_143" depart="192.00" departLane="-1169441386_1" departPos="5.10" departSpeed="0.00" departDelay="0.00" arrival="238.00" arrivalLane="694116204#2_2" arrivalPos="45.20" arrivalSpeed="13.46" duration="46.00" routeLength="175.49" waitingTime="16.00" waitingCount="1" stopTime="0.00" timeLoss="33.11" rerouteNo="0" devices="tripinfo_VEH_143" vType="sumo_car" speedFactor="1.16" vaporized=""/>
    <tripinfo id="VEH_2" depart="1.00" departLane="-E4_1" departPos="6.60" departSpeed="0.00" departDelay="0.00" arrival="239.00" arrivalLane="-1162834479#1_1" arrivalPos="0.20" arrivalSpeed="9.02" duration="238.00" routeLength="744.51" waitingTime="123.00" waitingCount="3" stopTime="0.00" timeLoss="154.90" rerouteNo="0" devices="tripinfo_VEH_2" vType="sumo_transporter" speedFactor="1.03" vaporized=""/>
    <tripinfo id="VEH_89" depart="126.00" departLane="-E4_1" departPos="6.60" departSpeed="0.00" departDelay="1.00" arrival="240.00" arrivalLane="-758088375#0_1" arrivalPos="24.98" arrivalSpeed="8.36" duration="114.00" routeLength="211.31" waitingTime="69.00" waitingCount="2" stopTime="0.00" timeLoss="91.62" rerouteNo="0" devices="tripinfo_VEH_89" vType="sumo_transporter" speedFactor="1.02" vaporized=""/>
    <tripinfo id="VEH_170" depart="225.00" departLane="183049957#0_1" departPos="5.10" departSpeed="0.00" departDelay="0.00" arrival="242.00" arrivalLane="331752492#2_1" arrivalPos="66.46" arrivalSpeed="12.93" duration="17.00" routeLength="112.21" waitingTime="0.00" waitingCount="0" stopTime="0.00" timeLoss="8.16" rerouteNo="0" devices="tripinfo_VEH_170" vType="sumo_car" speedFactor="0.98" vaporized=""/>
    <tripinfo id="VEH_93" depart="139.00" departLane="-E4_1" departPos="5.10" departSpeed="0.00" departDelay="10.00" arrival="243.00" arrivalLane="-758088375#0_1" arrivalPos="24.98" arrivalSpeed="7.24" duration="104.00" routeLength="212.81" waitingTime="61.00" waitingCount="1" stopTime="0.00" timeLoss="79.90" rerouteNo="0" devices="tripinfo_VEH_93" vType="sumo_car" speedFactor="0.89" vaporized=""/>