<?xml version="1.0" encoding="UTF-8"?>

<!-- generated on 2025-06-28 14:26:54 by Eclipse SUMO sumo Version 1.19.0
<configuration xmlns:xsi="http://www.w3.org/2001/XMLSchema-instance" xsi:noNamespaceSchemaLocation="http://sumo.dlr.de/xsd/sumoConfiguration.xsd">

    <input>
        <net-file value="../model/Network.net.xml"/>
        <route-files value="../model/CarRoutes.rou.xml"/>
        <additional-files value="../model/BusStops.add.xml"/>
    </input>

    <output>
        <summary-output value="../model/logs/Log_summary.xml"/>
        <summary-output.period value="300"/>
        <tripinfo-output value="../model/logs/TripInfos.xml"/>
    </output>

    <time>
        <begin value="0"/>
        <end value="86400"/>
        <step-length value="1"/>
    </time>

    <processing>
        <ignore-junction-blocker value="0.1"/>
        <time-to-teleport value="-1"/>
        <waiting-time-memory value="6000"/>
    </processing>

    <report>
        <verbose value="true"/>
        <no-step-log value="true"/>
    </report>

    <traci_server>
        <remote-port value="60558"/>
    </traci_server>

    <gui_only>
        <quit-on-end value="true"/>
        <start value="true"/>
    </gui_only>

</configuration>
-->

<tripinfos xmlns:xsi="http://www.w3.org/2001/XMLSchema-instance" xsi:noNamespaceSchemaLocation="http://sumo.dlr.de/xsd/tripinfo_file.xsd">
    <tripinfo id="VEH_5" depart="12.00" departLane="183049957#0_1" departPos="5.10" departSpeed="0.00" departDelay="0.00" arrival="28.00" arrivalLane="331752492#2_1" arrivalPos="66.46" arrivalSpeed="13.19" duration="16.00" routeLength="112.21" waitingTime="0.00" waitingCount="0" stopTime="0.00" timeLoss="6.88" rerouteNo="0" devices="tripinfo_VEH_5" vType="sumo_car" speedFactor="1.08" vaporized=""/>
    <tripinfo id="VEH_7" depart="16.00" departLane="183049957#0_1" departPos="5.10" departSpeed="0.00" departDelay="1.00" arrival="33.00" arrivalLane="331752492#2_1" arrivalPos="66.46" arrivalSpeed="11.42" duration="17.00" routeLength="112.21" waitingTime="0.00" waitingCount="0" stopTime="0.00" timeLoss="6.08" rerouteNo="0" devices="tripinfo_VEH_7" vType="sumo_car" speedFactor="0.83" vaporized=""/>
    <tripinfo id="VEH_9" depart="20.00" departLane="183049957#0_1" departPos="5.10" departSpeed="0.00" departDelay="3.00" arrival="37.00" arrivalLane="331752492#2_1" arrivalPos="66.46" arrivalSpeed="11.92" duration="17.00" routeLength="112.21" waitingTime="0.00" waitingCount="0" stopTime="0.00" timeLoss="6.73" rerouteNo="0" devices="tripinfo_VEH_9" vType="sumo_car" speedFactor="0.89" vaporized=""/>
    <tripinfo id="VEH_11" depart="24.00" departLane="183049957#0_1" departPos="5.10" departSpeed="0.00" departDelay="3.00" arrival="40.00" arrivalLane="331752492#2_1" arrivalPos="66.46" arrivalSpeed="11.48" duration="16.00" routeLength="112.21" waitingTime="0.00" waitingCount="0" stopTime="0.00" timeLoss="6.08" rerouteNo="0" devices="tripinfo_VEH_11" vType="sumo_car" speedFactor="0.86" vaporized=""/>
    <tripinfo id="VEH_17" depart="28.00" departLane="183049957#0_1" departPos="5.10" departSpeed="0.00" departDelay="1.00" arrival="44.00" arrivalLane="331752492#2_1" arrivalPos="66.46" arrivalSpeed="12.38" duration="16.00" routeLength="112.21" waitingTime="0.00" waitingCount="0" stopTime="0.00" timeLoss="6.64" rerouteNo="0" devices="tripinfo_VEH_17" vType="sumo_car" speedFactor="0.93" vaporized=""/>
    <tripinfo id="VEH_15" depart="24.00" departLane="-183419042#1_1" departPos="5.10" departSpeed="0.00" departDelay="0.00" arrival="49.00" arrivalLane="331752492#2_1" arrivalPos="66.46" arrivalSpeed="13.86" duration="25.00" routeLength="268.79" waitingTime="0.00" waitingCount="0" stopTime="0.00" timeLoss="5.39" rerouteNo="0" devices="tripinfo_VEH_15" vType="sumo_car" speedFactor="1.12" vaporized=""/>
    <tripinfo id="VEH_16" depart="27.00" departLane="758088375#0_1" departPos="5.10" departSpeed="0.00" departDelay="0.00" arrival="50.00" arrivalLane="25973410#1_1" arrivalPos="32.08" arrivalSpeed="8.22" duration="23.00" routeLength="75.29" waitingTime="5.00" waitingCount="1" stopTime="0.00" timeLoss="13.42" rerouteNo="0" devices="tripinfo_VEH_16" vType="sumo_car" speedFactor="0.99" vaporized=""/>
    <tripinfo id="VEH_10" depart="19.00" departLane="-25973410#1_1" departPos="5.10" departSpeed="0.00" departDelay="1.00" arrival="52.00" arrivalLane="-758088375#0_1" arrivalPos="24.98" arrivalSpeed="7.41" duration="33.00" routeLength="75.26" waitingTime="14.00" waitingCount="1" stopTime="0.00" timeLoss="22.52" rerouteNo="0" devices="tripinfo_VEH_10" vType="sumo_car" speedFactor="0.94" vaporized=""/>
    <tripinfo id="VEH_13" depart="23.00" departLane="-E4_1" departPos="5.10" departSpeed="0.00" departDelay="0.00" arrival="56.00" arrivalLane="-E2_1" arrivalPos="20.13" arrivalSpeed="10.21" duration="33.00" routeLength="88.22" waitingTime="13.00" waitingCount="1" stopTime="0.00" timeLoss="26.08" rerouteNo="0" devices="tripinfo_VEH_13" vType="sumo_car" speedFactor="1.03" vaporized=""/>
    <tripinfo id="VEH_20" depart="33.00" departLane="183049957#0_1" departPos="5.10" departSpeed="0.00" departDelay="0.00" arrival="56.00" arrivalLane="331752492#2_1" arrivalPos="66.46" arrivalSpeed="12.49" duration="23.00" routeLength="112.21" waitingTime="3.00" waitingCount="1" stopTime="0.00" timeLoss="13.34" rerouteNo="0" devices="tripinfo_VEH_20" vType="sumo_car" speedFactor="0.94" vaporized=""/>
    <tripinfo id="VEH_22" depart="42.00" departLane="183049957#0_1" departPos="5.10" departSpeed="0.00" departDelay="0.00" arrival="58.00" arrivalLane="331752492#2_1" arrivalPos="66.46" arrivalSpeed="13.65" duration="16.00" routeLength="112.21" waitingTime="0.00" waitingCount="0" stopTime="0.00" timeLoss="6.77" rerouteNo="0" devices="tripinfo_VEH_22" vType="sumo_car" speedFactor="1.02" vaporized=""/>
    <tripinfo id="VEH_6" depart="15.00" departLane="-25973410#1_1" departPos="5.10" departSpeed="0.00" departDelay="0.00" arrival="62.00" arrivalLane="694116204#2_1" arrivalPos="45.20" arrivalSpeed="13.39" duration="47.00" routeLength="221.68" waitingTime="15.00" waitingCount="1" stopTime="0.00" timeLoss="25.63" rerouteNo="0" devices="tripinfo_VEH_6" vType="sumo_car" speedFactor="1.03" vaporized=""/>
    <tripinfo id="VEH_3" depart="5.00" departLane="-E4_1" departPos="2.30" departSpeed="0.00" departDelay="0.00" arrival="83.00" arrivalLane="-758088375#0_1" arrivalPos="24.98" arrivalSpeed="7.58" duration="78.00" routeLength="215.61" waitingTime="42.00" waitingCount="2" stopTime="0.00" timeLoss="55.61" rerouteNo="0" devices="tripinfo_VEH_3" vType="sumo_motorcycle" speedFactor="0.94" vaporized=""/>
    <tripinfo id="VEH_40" depart="69.00" departLane="183049957#0_1" departPos="5.10" departSpeed="0.00" departDelay="0.00" arrival="85.00" arrivalLane="331752492#2_1" arrivalPos="66.46" arrivalSpeed="13.61" duration="16.00" routeLength="112.21" waitingTime="0.00" waitingCount="0" stopTime="0.00" timeLoss="7.14" rerouteNo="0" devices="tripinfo_VEH_40" vType="sumo_car" speedFactor="1.10" vaporized=""/>
    <tripinfo id="VEH_46" depart="74.00" departLane="-1169441386_1" departPos="5.10" departSpeed="0.00" departDelay="0.00" arrival="91.00" arrivalLane="183419043#1_1" arrivalPos="11.49" arrivalSpeed="13.59" duration="17.00" routeLength="129.14" waitingTime="0.00" waitingCount="0" stopTime="0.00" timeLoss="6.94" rerouteNo="0" devices="tripinfo_VEH_46" vType="sumo_car" speedFactor="1.04" vaporized=""/>
    <tripinfo id="VEH_14" depart="23.00" departLane="921020465#1_1" departPos="5.10" departSpeed="0.00" departDelay="0.00" arrival="94.00" arrivalLane="E4_1" arrivalPos="50.96" arrivalSpeed="12.52" duration="71.00" routeLength="425.49" waitingTime="11.00" waitingCount="2" stopTime="0.00" timeLoss="34.00" rerouteNo="0" devices="tripinfo_VEH_14" vType="sumo_car" speedFactor="1.05" vaporized=""/>
    <tripinfo id="VEH_26" depart="47.00" departLane="-E4_1" departPos="5.10" departSpeed="0.00" departDelay="0.00" arrival="98.00" arrivalLane="-E2_1" arrivalPos="20.13" arrivalSpeed="10.56" duration="51.00" routeLength="88.22" waitingTime="32.00" waitingCount="1" stopTime="0.00" timeLoss="42.44" rerouteNo="0" devices="tripinfo_VEH_26" vType="sumo_car" speedFactor="0.83" vaporized=""/>
    <tripinfo id="VEH_55" depart="86.00" departLane="758088375#0_1" departPos="5.10" departSpeed="0.00" departDelay="0.00" arrival="98.00" arrivalLane="25973410#1_1" arrivalPos="32.08" arrivalSpeed="8.81" duration="12.00" routeLength="75.29" waitingTime="0.00" waitingCount="0" stopTime="0.00" timeLoss="3.25" rerouteNo="0" devices="tripinfo_VEH_55" vType="sumo_car" speedFactor="1.10" vaporized=""/>
    <tripinfo id="VEH_53" depart="85.00" departLane="183049957#0_1" departPos="5.10" departSpeed="0.00" departDelay="0.00" arrival="99.00" arrivalLane="331752492#2_1" arrivalPos="66.46" arrivalSpeed="13.67" duration="14.00" routeLength="112.21" waitingTime="0.00" waitingCount="0" stopTime="0.00" timeLoss="5.40" rerouteNo="0" devices="tripinfo_VEH_53" vType="sumo_car" speedFactor="1.17" vaporized=""/>
    <tripinfo id="VEH_39" depart="75.00" departLane="921020465#1_1" departPos="5.10" departSpeed="0.00" departDelay="9.00" arrival="100.00" arrivalLane="183419043#1_1" arrivalPos="11.49" arrivalSpeed="11.86" duration="25.00" routeLength="172.24" waitingTime="2.00" waitingCount="1" stopTime="0.00" timeLoss="11.65" rerouteNo="0" devices="tripinfo_VEH_39" vType="sumo_car" speedFactor="1.18" vaporized=""/>
    <tripinfo id="VEH_23" depart="43.00" departLane="-25973410#1_1" departPos="5.10" departSpeed="0.00" departDelay="0.00" arrival="107.00" arrivalLane="694116204#2_1" arrivalPos="45.20" arrivalSpeed="13.16" duration="64.00" routeLength="221.68" waitingTime="33.00" waitingCount="1" stopTime="0.00" timeLoss="42.46" rerouteNo="0" devices="tripinfo_VEH_23" vType="sumo_car" speedFactor="1.01" vaporized=""/>
    <tripinfo id="VEH_35" depart="60.00" departLane="-25973410#1_1" departPos="5.10" departSpeed="0.00" departDelay="0.00" arrival="109.00" arrivalLane="694116204#2_1" arrivalPos="45.20" arrivalSpeed="13.38" duration="49.00" routeLength="221.68" waitingTime="18.00" waitingCount="1" stopTime="0.00" timeLoss="28.96" rerouteNo="0" devices="tripinfo_VEH_35" vType="sumo_car" speedFactor="1.17" vaporized=""/>
    <tripinfo id="VEH_42" depart="82.00" departLane="921020465#1_1" departPos="5.10" departSpeed="0.00" departDelay="13.00" arrival="113.00" arrivalLane="183419043#1_1" arrivalPos="11.49" arrivalSpeed="10.37" duration="31.00" routeLength="172.24" waitingTime="3.00" waitingCount="2" stopTime="0.00" timeLoss="17.28" rerouteNo="0" devices="tripinfo_VEH_42" vType="sumo_car" speedFactor="1.03" vaporized=""/>
    <tripinfo id="VEH_54" depart="85.00" departLane="-1169441386_1" departPos="5.10" departSpeed="0.00" departDelay="0.00" arrival="119.00" arrivalLane="694116204#2_2" arrivalPos="45.20" arrivalSpeed="13.29" duration="34.00" routeLength="175.49" waitingTime="6.00" waitingCount="1" stopTime="0.00" timeLoss="20.68" rerouteNo="0" devices="tripinfo_VEH_54" vType="sumo_car" speedFactor="1.02" vaporized=""/>
    <tripinfo id="VEH_24" depart="44.00" departLane="23320502_1" departPos="5.10" departSpeed="0.00" departDelay="0.00" arrival="123.00" arrivalLane="25973410#1_1" arrivalPos="32.08" arrivalSpeed="7.65" duration="79.00" routeLength="524.68" waitingTime="3.00" waitingCount="1" stopTime="0.00" timeLoss="21.33" rerouteNo="0" devices="tripinfo_VEH_24" vType="sumo_car" speedFactor="0.97" vaporized=""/>
    <tripinfo id="VEH_68" depart="107.00" departLane="183049957#0_1" departPos="5.10" departSpeed="0.00" departDelay="0.00" arrival="124.00" arrivalLane="331752492#2_1" arrivalPos="66.46" arrivalSpeed="12.17" duration="17.00" routeLength="112.21" waitingTime="0.00" waitingCount="0" stopTime="0.00" timeLoss="6.72" rerouteNo="0" devices="tripinfo_VEH_68" vType="sumo_car" speedFactor="0.91" vaporized=""/>
    <tripinfo id="VEH_44" depart="88.00" departLane="921020465#1_1" departPos="15.10" departSpeed="0.00" departDelay="17.00" arrival="126.00" arrivalLane="183419043#1_1" arrivalPos="11.49" arrivalSpeed="7.16" duration="38.00" routeLength="162.24" waitingTime="1.00" waitingCount="1" stopTime="0.00" timeLoss="21.13" rerouteNo="0" devices="tripinfo_VEH_44" vType="sumo_truck" speedFactor="1.05" vaporized=""/>
    <tripinfo id="VEH_75" depart="111.00" departLane="183049957#0_1" departPos="5.10" departSpeed="0.00" departDelay="0.00" arrival="128.00" arrivalLane="331752492#2_1" arrivalPos="66.46" arrivalSpeed="13.37" duration="17.00" routeLength="112.21" waitingTime="0.00" waitingCount="0" stopTime="0.00" timeLoss="8.09" rerouteNo="0" devices="tripinfo_VEH_75" vType="sumo_car" speedFactor="1.06" vaporized=""/>
    <tripinfo id="VEH_79" depart="115.00" departLane="183049957#0_1" departPos="5.10" departSpeed="0.00" departDelay="2.00" arrival="131.00" arrivalLane="331752492#2_1" arrivalPos="66.46" arrivalSpeed="13.31" duration="16.00" routeLength="112.21" waitingTime="0.00" waitingCount="0" stopTime="0.00" timeLoss="6.62" rerouteNo="0" devices="tripinfo_VEH_79" vType="sumo_car" speedFactor="0.98" vaporized=""/>
    <tripinfo id="VEH_82" depart="119.00" departLane="183049957#0_1" departPos="5.10" departSpeed="0.00" departDelay="1.00" arrival="135.00" arrivalLane="331752492#2_1" arrivalPos="66.46" arrivalSpeed="13.74" duration="16.00" routeLength="112.21" waitingTime="0.00" waitingCount="0" stopTime="0.00" timeLoss="7.01" rerouteNo="0" devices="tripinfo_VEH_82" vType="sumo_car" speedFactor="1.03" vaporized=""/>
    <tripinfo id="VEH_18" depart="28.00" departLane="921020465#1_1" departPos="5.10" departSpeed="0.00" departDelay="0.00" arrival="140.00" arrivalLane="E4_1" arrivalPos="50.96" arrivalSpeed="11.47" duration="112.00" routeLength="425.49" waitingTime="43.00" waitingCount="3" stopTime="0.00" timeLoss="68.38" rerouteNo="0" devices="tripinfo_VEH_18" vType="sumo_car" speedFactor="0.88" vaporized=""/>
    <tripinfo id="VEH_88" depart="124.00" departLane="183049957#0_1" departPos="5.10" departSpeed="0.00" departDelay="0.00" arrival="140.00" arrivalLane="331752492#2_1" arrivalPos="66.46" arrivalSpeed="13.69" duration="16.00" routeLength="112.21" waitingTime="0.00" waitingCount="0" stopTime="0.00" timeLoss="6.88" rerouteNo="0" devices="tripinfo_VEH_88" vType="sumo_car" speedFactor="1.00" vaporized=""/>
    <tripinfo id="VEH_45" depart="94.00" departLane="921020465#1_1" departPos="6.60" departSpeed="0.00" departDelay="21.00" arrival="144.00" arrivalLane="183419043#1_1" arrivalPos="11.49" arrivalSpeed="8.25" duration="50.00" routeLength="170.74" waitingTime="12.00" waitingCount="1" stopTime="0.00" timeLoss="34.35" rerouteNo="0" devices="tripinfo_VEH_45" vType="sumo_transporter" speedFactor="1.02" vaporized=""/>
    <tripinfo id="VEH_2" depart="1.00" departLane="-E4_1" departPos="5.10" departSpeed="0.00" departDelay="0.00" arrival="149.00" arrivalLane="-1162834479#1_1" arrivalPos="0.20" arrivalSpeed="11.40" duration="148.00" routeLength="746.01" waitingTime="45.00" waitingCount="2" stopTime="0.00" timeLoss="68.69" rerouteNo="0" devices="tripinfo_VEH_2" vType="sumo_car" speedFactor="1.06" vaporized=""/>
    <tripinfo id="VEH_12" depart="22.00" departLane="1162834479#1_1" departPos="0.20" departSpeed="0.00" departDelay="0.00" arrival="151.00" arrivalLane="694116204#2_2" arrivalPos="45.20" arrivalSpeed="13.56" duration="129.00" routeLength="992.43" waitingTime="1.00" waitingCount="1" stopTime="0.00" timeLoss="29.63" rerouteNo="0" devices="tripinfo_VEH_12" vType="sumo_car" speedFactor="1.09" vaporized=""/>
    <tripinfo id="VEH_49" depart="106.00" departLane="921020465#1_1" departPos="5.10" departSpeed="0.00" departDelay="28.00" arrival="152.00" arrivalLane="183419043#1_1" arrivalPos="11.49" arrivalSpeed="11.21" duration="46.00" routeLength="172.24" waitingTime="13.00" waitingCount="4" stopTime="0.00" timeLoss="30.63" rerouteNo="0" devices="tripinfo_VEH_49" vType="sumo_car" speedFactor="0.90" vaporized=""/>
    <tripinfo id="VEH_98" depart="135.00" departLane="183049957#0_1" departPos="14.45" departSpeed="0.00" departDelay="0.00" arrival="156.00" arrivalLane="331752492#2_1" arrivalPos="66.46" arrivalSpeed="9.73" duration="21.00" routeLength="102.86" waitingTime="0.00" waitingCount="0" stopTime="0.00" timeLoss="9.95" rerouteNo="0" devices="tripinfo_VEH_98" vType="sumo_truck" speedFactor="1.00" vaporized=""/>
    <tripinfo id="VEH_103" depart="139.00" departLane="-1169441386_1" departPos="5.10" departSpeed="0.00" departDelay="0.00" arrival="159.00" arrivalLane="694116204#2_2" arrivalPos="45.20" arrivalSpeed="12.91" duration="20.00" routeLength="175.49" waitingTime="0.00" waitingCount="0" stopTime="0.00" timeLoss="6.08" rerouteNo="0" devices="tripinfo_VEH_103" vType="sumo_car" speedFactor="0.96" vaporized=""/>
    <tripinfo id="VEH_101" depart="141.00" departLane="183049957#0_1" departPos="6.60" departSpeed="0.00" departDelay="4.00" arrival="160.00" arrivalLane="331752492#2_1" arrivalPos="66.46" arrivalSpeed="11.01" duration="19.00" routeLength="110.71" waitingTime="0.00" waitingCount="0" stopTime="0.00" timeLoss="7.83" rerouteNo="0" devices="tripinfo_VEH_101" vType="sumo_transporter" speedFactor="1.05" vaporized=""/>
    <tripinfo id="VEH_104" depart="142.00" departLane="-1169441386_1" departPos="5.10" departSpeed="0.00" departDelay="1.00" arrival="161.00" arrivalLane="694116204#2_2" arrivalPos="45.20" arrivalSpeed="12.76" duration="19.00" routeLength="175.49" waitingTime="0.00" waitingCount="0" stopTime="0.00" timeLoss="5.77" rerouteNo="0" devices="tripinfo_VEH_104" vType="sumo_car" speedFactor="0.97" vaporized=""/>
    <tripinfo id="VEH_105" depart="144.00" departLane="-1169441386_1" departPos="5.10" departSpeed="0.00" departDelay="2.00" arrival="162.00" arrivalLane="183419043#1_1" arrivalPos="11.49" arrivalSpeed="11.63" duration="18.00" routeLength="129.14" waitingTime="0.00" waitingCount="0" stopTime="0.00" timeLoss="8.23" rerouteNo="0" devices="tripinfo_VEH_105" vType="sumo_car" speedFactor="0.95" vaporized=""/>
    <tripinfo id="VEH_112" depart="150.00" departLane="183049957#0_1" departPos="5.10" departSpeed="0.00" departDelay="0.00" arrival="166.00" arrivalLane="331752492#2_1" arrivalPos="66.46" arrivalSpeed="12.54" duration="16.00" routeLength="112.21" waitingTime="0.00" waitingCount="0" stopTime="0.00" timeLoss="6.55" rerouteNo="0" devices="tripinfo_VEH_112" vType="sumo_car" speedFactor="0.93" vaporized=""/>
    <tripinfo id="VEH_107" depart="148.00" departLane="-1169441386_1" departPos="5.10" departSpeed="0.00" departDelay="4.00" arrival="167.00" arrivalLane="694116204#2_2" arrivalPos="45.20" arrivalSpeed="13.76" duration="19.00" routeLength="175.49" waitingTime="0.00" waitingCount="0" stopTime="0.00" timeLoss="5.49" rerouteNo="0" devices="tripinfo_VEH_107" vType="sumo_car" speedFactor="1.07" vaporized=""/>
    <tripinfo id="VEH_84" depart="122.00" departLane="-E4_1" departPos="5.10" departSpeed="0.00" departDelay="0.00" arrival="173.00" arrivalLane="-758088375#0_1" arrivalPos="24.98" arrivalSpeed="8.18" duration="51.00" routeLength="212.81" waitingTime="12.00" waitingCount="2" stopTime="0.00" timeLoss="30.58" rerouteNo="0" devices="tripinfo_VEH_84" vType="sumo_car" speedFactor="1.02" vaporized=""/>
    <tripinfo id="VEH_110" depart="154.00" departLane="-1169441386_1" departPos="5.10" departSpeed="0.00" departDelay="7.00" arrival="173.00" arrivalLane="183419043#1_1" arrivalPos="11.49" arrivalSpeed="12.98" duration="19.00" routeLength="129.14" waitingTime="0.00" waitingCount="0" stopTime="0.00" timeLoss="8.80" rerouteNo="0" devices="tripinfo_VEH_110" vType="sumo_car" speedFactor="1.06" vaporized=""/>
    <tripinfo id="VEH_89" depart="126.00" departLane="-E4_1" departPos="5.10" departSpeed="0.00" departDelay="1.00" arrival="176.00" arrivalLane="-758088375#0_1" arrivalPos="24.98" arrivalSpeed="8.60" duration="50.00" routeLength="212.81" waitingTime="11.00" waitingCount="1" stopTime="0.00" timeLoss="28.94" rerouteNo="0" devices="tripinfo_VEH_89" vType="sumo_car" speedFactor="1.04" vaporized=""/>
    <tripinfo id="VEH_4" depart="9.00" departLane="-183419042#1_1" departPos="5.10" departSpeed="0.00" departDelay="0.00" arrival="178.00" arrivalLane="-E13_1" arrivalPos="59.59" arrivalSpeed="13.41" duration="169.00" routeLength="1151.72" waitingTime="19.00" waitingCount="2" stopTime="0.00" timeLoss="51.88" rerouteNo="0" devices="tripinfo_VEH_4" vType="sumo_car" speedFactor="1.01" vaporized=""/>
    <tripinfo id="VEH_100" depart="137.00" departLane="-183419042#1_1" departPos="5.10" departSpeed="0.00" departDelay="0.00" arrival="179.00" arrivalLane="331752492#2_1" arrivalPos="66.46" arrivalSpeed="13.43" duration="42.00" routeLength="268.79" waitingTime="7.00" waitingCount="1" stopTime="0.00" timeLoss="21.70" rerouteNo="0" devices="tripinfo_VEH_100" vType="sumo_car" speedFactor="1.12" vaporized=""/>
    <tripinfo id="VEH_8" depart="15.00" departLane="-183419042#1_1" departPos="2.30" departSpeed="0.00" departDelay="0.00" arrival="180.00" arrivalLane="-E13_1" arrivalPos="59.59" arrivalSpeed="14.27" duration="165.00" routeLength="1154.52" waitingTime="17.00" waitingCount="1" stopTime="0.00" timeLoss="51.65" rerouteNo="0" devices="tripinfo_VEH_8" vType="sumo_motorcycle" speedFactor="1.05" vaporized=""/>
    <tripinfo id="VEH_28" depart="50.00" departLane="1162834479#1_1" departPos="0.20" departSpeed="0.00" departDelay="0.00" arrival="181.00" arrivalLane="183419043#1_1" arrivalPos="11.49" arrivalSpeed="10.19" duration="131.00" routeLength="931.93" waitingTime="0.00" waitingCount="0" stopTime="0.00" timeLoss="18.91" rerouteNo="0" devices="tripinfo_VEH_28" vType="sumo_car" speedFactor="0.92" vaporized=""/>
    <tripinfo id="VEH_21" depart="35.00" departLane="921020465#1_1" departPos="5.10" departSpeed="0.00" departDelay="0.00" arrival="182.00" arrivalLane="-E13_1" arrivalPos="59.59" arrivalSpeed="13.64" duration="147.00" routeLength="1106.96" waitingTime="0.00" waitingCount="0" stopTime="0.00" timeLoss="43.77" rerouteNo="0" devices="tripinfo_VEH_21" vType="sumo_car" speedFactor="1.16" vaporized=""/>
    <tripinfo id="VEH_32" depart="57.00" departLane="921020465#1_1" departPos="5.10" departSpeed="0.00" departDelay="1.00" arrival="184.00" arrivalLane="E4_1" arrivalPos="50.96" arrivalSpeed="13.30" duration="127.00" routeLength="425.49" waitingTime="59.00" waitingCount="3" stopTime="0.00" timeLoss="91.29" rerouteNo="0" devices="tripinfo_VEH_32" vType="sumo_car" speedFactor="1.18" vaporized=""/>
    <tripinfo id="VEH_106" depart="144.00" departLane="758088375#0_1" departPos="5.10" departSpeed="0.00" departDelay="0.00" arrival="185.00" arrivalLane="25973410#1_1" arrivalPos="32.08" arrivalSpeed="7.08" duration="41.00" routeLength="75.29" waitingTime="23.00" waitingCount="1" stopTime="0.00" timeLoss="30.67" rerouteNo="0" devices="tripinfo_VEH_106" vType="sumo_car" speedFactor="0.89" vaporized=""/>
    <tripinfo id="VEH_130" depart="171.00" departLane="183049957#0_1" departPos="5.10" departSpeed="0.00" departDelay="0.00" arrival="187.00" arrivalLane="331752492#2_1" arrivalPos="66.46" arrivalSpeed="13.88" duration="16.00" routeLength="112.21" waitingTime="0.00" waitingCount="0" stopTime="0.00" timeLoss="6.67" rerouteNo="0" devices="tripinfo_VEH_130" vType="sumo_car" speedFactor="1.12" vaporized=""/>
    <tripinfo id="VEH_31" depart="53.00" departLane="1162834479#1_1" departPos="0.20" departSpeed="0.00" departDelay="0.00" arrival="190.00" arrivalLane="694116204#2_2" arrivalPos="45.20" arrivalSpeed="12.56" duration="137.00" routeLength="992.43" waitingTime="0.00" waitingCount="0" stopTime="0.00" timeLoss="22.75" rerouteNo="0" devices="tripinfo_VEH_31" vType="sumo_car" speedFactor="0.93" vaporized=""/>
    <tripinfo id="VEH_19" depart="31.00" departLane="921020465#1_1" departPos="5.10" departSpeed="0.00" departDelay="2.00" arrival="192.00" arrivalLane="-1162834479#1_1" arrivalPos="0.20" arrivalSpeed="10.42" duration="161.00" routeLength="1054.84" waitingTime="8.00" waitingCount="2" stopTime="0.00" timeLoss="42.77" rerouteNo="0" devices="tripinfo_VEH_19" vType="sumo_car" speedFactor="0.94" vaporized=""/>
    <tripinfo id="VEH_91" depart="130.00" departLane="-E4_1" departPos="5.10" departSpeed="0.00" departDelay="3.00" arrival="193.00" arrivalLane="694116204#2_1" arrivalPos="45.20" arrivalSpeed="13.63" duration="63.00" routeLength="370.12" waitingTime="8.00" waitingCount="1" stopTime="0.00" timeLoss="28.38" rerouteNo="0" devices="tripinfo_VEH_91" vType="sumo_car" speedFactor="1.02" vaporized=""/>
    <tripinfo id="VEH_117" depart="170.00" departLane="921020465#1_1" departPos="5.10" departSpeed="0.00" departDelay="12.00" arrival="196.00" arrivalLane="183419043#1_1" arrivalPos="11.49" arrivalSpeed="12.27" duration="26.00" routeLength="172.24" waitingTime="2.00" waitingCount="1" stopTime="0.00" timeLoss="11.10" rerouteNo="0" devices="tripinfo_VEH_117" vType="sumo_car" speedFactor="0.92" vaporized=""/>
    <tripinfo id="VEH_136" depart="182.00" departLane="183049957#0_1" departPos="5.10" departSpeed="0.00" departDelay="0.00" arrival="197.00" arrivalLane="331752492#2_1" arrivalPos="66.46" arrivalSpeed="13.29" duration="15.00" routeLength="112.21" waitingTime="0.00" waitingCount="0" stopTime="0.00" timeLoss="6.36" rerouteNo="0" devices="tripinfo_VEH_136" vType="sumo_car" speedFactor="1.23" vaporized=""/>
    <tripinfo id="VEH_138" depart="186.00" departLane="183049957#0_1" departPos="5.10" departSpeed="0.00" departDelay="2.00" arrival="201.00" arrivalLane="331752492#2_1" arrivalPos="66.46" arrivalSpeed="13.61" duration="15.00" routeLength="112.21" waitingTime="0.00" waitingCount="0" stopTime="0.00" timeLoss="6.32" rerouteNo="0" devices="tripinfo_VEH_138" vType="sumo_car" speedFactor="1.12" vaporized=""/>
    <tripinfo id="VEH_118" depart="175.00" departLane="921020465#1_1" departPos="5.10" departSpeed="0.00" departDelay="15.00" arrival="206.00" arrivalLane="183419043#1_1" arrivalPos="11.49" arrivalSpeed="12.12" duration="31.00" routeLength="172.24" waitingTime="0.00" waitingCount="0" stopTime="0.00" timeLoss="17.33" rerouteNo="0" devices="tripinfo_VEH_118" vType="sumo_car" speedFactor="1.18" vaporized=""/>
    <tripinfo id="VEH_140" depart="190.00" departLane="183049957#0_1" departPos="5.10" departSpeed="0.00" departDelay="1.00" arrival="206.00" arrivalLane="331752492#2_1" arrivalPos="66.46" arrivalSpeed="13.86" duration="16.00" routeLength="112.21" waitingTime="0.00" waitingCount="0" stopTime="0.00" timeLoss="6.98" rerouteNo="0" devices="tripinfo_VEH_140" vType="sumo_car" speedFactor="1.00" vaporized=""/>
    <tripinfo id="VEH_62" depart="99.00" departLane="E13_1" departPos="5.10" departSpeed="0.00" departDelay="0.00" arrival="208.00" arrivalLane="E4_1" arrivalPos="50.96" arrivalSpeed="11.60" duration="109.00" routeLength="789.50" waitingTime="7.00" waitingCount="1" stopTime="0.00" timeLoss="28.59" rerouteNo="0" devices="tripinfo_VEH_62" vType="sumo_car" speedFactor="1.08" vaporized=""/>
    <tripinfo id="VEH_142" depart="193.00" departLane="183049957#0_1" departPos="2.30" departSpeed="0.00" departDelay="2.00" arrival="208.00" arrivalLane="331752492#2_1" arrivalPos="66.46" arrivalSpeed="14.97" duration="15.00" routeLength="115.01" waitingTime="0.00" waitingCount="0" stopTime="0.00" timeLoss="6.82" rerouteNo="0" devices="tripinfo_VEH_142" vType="sumo_motorcycle" speedFactor="1.11" vaporized=""/>
    <tripinfo id="VEH_143" depart="192.00" departLane="-1169441386_1" departPos="5.10" departSpeed="0.00" departDelay="0.00" arrival="211.00" arrivalLane="694116204#2_2" arrivalPos="45.20" arrivalSpeed="13.21" duration="19.00" routeLength="175.49" waitingTime="0.00" waitingCount="0" stopTime="0.00" timeLoss="6.34" rerouteNo="0" devices="tripinfo_VEH_143" vType="sumo_car" speedFactor="1.16" vaporized=""/>
    <tripinfo id="VEH_144" depart="195.00" departLane="-1169441386_1" departPos="5.10" departSpeed="0.00" departDelay="3.00" arrival="214.00" arrivalLane="183419043#1_1" arrivalPos="11.49" arrivalSpeed="12.50" duration="19.00" routeLength="129.14" waitingTime="0.00" waitingCount="0" stopTime="0.00" timeLoss="8.12" rerouteNo="0" devices="tripinfo_VEH_144" vType="sumo_car" speedFactor="0.94" vaporized=""/>
    <tripinfo id="VEH_149" depart="201.00" departLane="183049957#0_1" departPos="5.10" departSpeed="0.00" departDelay="0.00" arrival="218.00" arrivalLane="331752492#2_1" arrivalPos="66.46" arrivalSpeed="13.32" duration="17.00" routeLength="112.21" waitingTime="0.00" waitingCount="0" stopTime="0.00" timeLoss="8.01" rerouteNo="0" devices="tripinfo_VEH_149" vType="sumo_car" speedFactor="1.00" vaporized=""/>
    <tripinfo id="VEH_93" depart="134.00" departLane="-E4_1" departPos="5.10" departSpeed="0.00" departDelay="5.00" arrival="219.00" arrivalLane="-758088375#0_1" arrivalPos="24.98" arrivalSpeed="6.96" duration="85.00" routeLength="212.81" waitingTime="43.00" waitingCount="2" stopTime="0.00" timeLoss="61.26" rerouteNo="0" devices="tripinfo_VEH_93" vType="sumo_car" speedFactor="0.89" vaporized=""/>
    <tripinfo id="VEH_52" depart="81.00" departLane="758088375#0_1" departPos="5.10" departSpeed="0.00" departDelay="0.00" arrival="224.00" arrivalLane="-E13_1" arrivalPos="59.59" arrivalSpeed="11.18" duration="143.00" routeLength="892.87" waitingTime="13.00" waitingCount="1" stopTime="0.00" timeLoss="29.99" rerouteNo="0" devices="tripinfo_VEH_52" vType="sumo_car" speedFactor="0.85" vaporized=""/>
    <tripinfo id="VEH_56" depart="87.00" departLane="758088375#0_1" departPos="5.10" departSpeed="0.00" departDelay="0.00" arrival="230.00" arrivalLane="E4_1" arrivalPos="50.96" arrivalSpeed="12.50" duration="143.00" routeLength="211.40" waitingTime="103.00" waitingCount="3" stopTime="0.00" timeLoss="122.92" rerouteNo="0" devices="tripinfo_VEH_56" vType="sumo_car" speedFactor="1.00" vaporized=""/>