<?xml version="1.0" encoding="UTF-8"?>

<!-- generated on 2025-06-28 14:29:51 by Eclipse SUMO sumo Version 1.19.0
<configuration xmlns:xsi="http://www.w3.org/2001/XMLSchema-instance" xsi:noNamespaceSchemaLocation="http://sumo.dlr.de/xsd/sumoConfiguration.xsd">

    <input>
        <net-file value="../model/Network.net.xml"/>
        <route-files value="../model/CarRoutes.rou.xml"/>
        <additional-files value="../model/BusStops.add.xml"/>
    </input>

    <output>
        <summary-output value="../model/logs/Log_summary.xml"/>
        <summary-output.period value="300"/>
        <tripinfo-output value="../model/logs/TripInfos.xml"/>
    </output>

    <time>
        <begin value="0"/>
        <end value="86400"/>
        <step-length value="1"/>
    </time>

    <processing>
        <ignore-junction-blocker value="0.1"/>
        <time-to-teleport value="-1"/>
        <waiting-time-memory value="6000"/>
    </processing>

    <report>
        <verbose value="true"/>
        <no-step-log value="true"/>
    </report>

    <traci_server>
        <remote-port value="61727"/>
    </traci_server>

    <gui_only>
        <quit-on-end value="true"/>
        <start value="true"/>
    </gui_only>

</configuration>
-->

<tripinfos xmlns:xsi="http://www.w3.org/2001/XMLSchema-instance" xsi:noNamespaceSchemaLocation="http://sumo.dlr.de/xsd/tripinfo_file.xsd">
    <tripinfo id="VEH_5" depart="12.00" departLane="183049957#0_1" departPos="5.10" departSpeed="0.00" departDelay="0.00" arrival="28.00" arrivalLane="331752492#2_1" arrivalPos="66.46" arrivalSpeed="13.55" duration="16.00" routeLength="112.21" waitingTime="0.00" waitingCount="0" stopTime="0.00" timeLoss="6.99" rerouteNo="0" devices="tripinfo_VEH_5" vType="sumo_car" speedFactor="1.08" vaporized=""/>
    <tripinfo id="VEH_7" depart="16.00" departLane="183049957#0_1" departPos="5.10" departSpeed="0.00" departDelay="1.00" arrival="33.00" arrivalLane="331752492#2_1" arrivalPos="66.46" arrivalSpeed="11.25" duration="17.00" routeLength="112.21" waitingTime="0.00" waitingCount="0" stopTime="0.00" timeLoss="6.20" rerouteNo="0" devices="tripinfo_VEH_7" vType="sumo_car" speedFactor="0.83" vaporized=""/>
    <tripinfo id="VEH_9" depart="20.00" departLane="183049957#0_1" departPos="5.10" departSpeed="0.00" departDelay="3.00" arrival="37.00" arrivalLane="331752492#2_1" arrivalPos="66.46" arrivalSpeed="12.26" duration="17.00" routeLength="112.21" waitingTime="0.00" waitingCount="0" stopTime="0.00" timeLoss="7.45" rerouteNo="0" devices="tripinfo_VEH_9" vType="sumo_car" speedFactor="0.89" vaporized=""/>
    <tripinfo id="VEH_11" depart="24.00" departLane="183049957#0_1" departPos="5.10" departSpeed="0.00" departDelay="3.00" arrival="41.00" arrivalLane="331752492#2_1" arrivalPos="66.46" arrivalSpeed="11.88" duration="17.00" routeLength="112.21" waitingTime="0.00" waitingCount="0" stopTime="0.00" timeLoss="6.27" rerouteNo="0" devices="tripinfo_VEH_11" vType="sumo_car" speedFactor="0.86" vaporized=""/>
    <tripinfo id="VEH_17" depart="28.00" departLane="183049957#0_1" departPos="5.10" departSpeed="0.00" departDelay="1.00" arrival="44.00" arrivalLane="331752492#2_1" arrivalPos="66.46" arrivalSpeed="12.35" duration="16.00" routeLength="112.21" waitingTime="0.00" waitingCount="0" stopTime="0.00" timeLoss="6.39" rerouteNo="0" devices="tripinfo_VEH_17" vType="sumo_car" speedFactor="0.93" vaporized=""/>
    <tripinfo id="VEH_16" depart="27.00" departLane="758088375#0_1" departPos="5.10" departSpeed="0.00" departDelay="0.00" arrival="49.00" arrivalLane="25973410#1_1" arrivalPos="32.08" arrivalSpeed="8.22" duration="22.00" routeLength="75.29" waitingTime="5.00" waitingCount="1" stopTime="0.00" timeLoss="12.57" rerouteNo="0" devices="tripinfo_VEH_16" vType="sumo_car" speedFactor="0.99" vaporized=""/>
    <tripinfo id="VEH_20" depart="33.00" departLane="183049957#0_1" departPos="5.10" departSpeed="0.00" departDelay="0.00" arrival="49.00" arrivalLane="331752492#2_1" arrivalPos="66.46" arrivalSpeed="12.72" duration="16.00" routeLength="112.21" waitingTime="0.00" waitingCount="0" stopTime="0.00" timeLoss="6.62" rerouteNo="0" devices="tripinfo_VEH_20" vType="sumo_car" speedFactor="0.94" vaporized=""/>
    <tripinfo id="VEH_15" depart="24.00" departLane="-183419042#1_1" departPos="5.10" departSpeed="0.00" departDelay="0.00" arrival="51.00" arrivalLane="331752492#2_1" arrivalPos="66.46" arrivalSpeed="13.44" duration="27.00" routeLength="268.79" waitingTime="0.00" waitingCount="0" stopTime="0.00" timeLoss="7.08" rerouteNo="0" devices="tripinfo_VEH_15" vType="sumo_car" speedFactor="1.12" vaporized=""/>
    <tripinfo id="VEH_10" depart="19.00" departLane="-25973410#1_1" departPos="5.10" departSpeed="0.00" departDelay="1.00" arrival="52.00" arrivalLane="-758088375#0_1" arrivalPos="24.98" arrivalSpeed="7.41" duration="33.00" routeLength="75.26" waitingTime="14.00" waitingCount="1" stopTime="0.00" timeLoss="22.52" rerouteNo="0" devices="tripinfo_VEH_10" vType="sumo_car" speedFactor="0.94" vaporized=""/>
    <tripinfo id="VEH_13" depart="23.00" departLane="-E4_1" departPos="5.10" departSpeed="0.00" departDelay="0.00" arrival="57.00" arrivalLane="-E2_1" arrivalPos="20.13" arrivalSpeed="9.63" duration="34.00" routeLength="88.22" waitingTime="13.00" waitingCount="1" stopTime="0.00" timeLoss="27.47" rerouteNo="0" devices="tripinfo_VEH_13" vType="sumo_car" speedFactor="1.03" vaporized=""/>
    <tripinfo id="VEH_22" depart="42.00" departLane="183049957#0_1" departPos="2.30" departSpeed="0.00" departDelay="0.00" arrival="57.00" arrivalLane="331752492#2_1" arrivalPos="66.46" arrivalSpeed="13.76" duration="15.00" routeLength="115.01" waitingTime="0.00" waitingCount="0" stopTime="0.00" timeLoss="6.19" rerouteNo="0" devices="tripinfo_VEH_22" vType="sumo_motorcycle" speedFactor="1.02" vaporized=""/>
    <tripinfo id="VEH_6" depart="15.00" departLane="-25973410#1_1" departPos="5.10" departSpeed="0.00" departDelay="0.00" arrival="62.00" arrivalLane="694116204#2_1" arrivalPos="45.20" arrivalSpeed="13.39" duration="47.00" routeLength="221.68" waitingTime="15.00" waitingCount="1" stopTime="0.00" timeLoss="25.62" rerouteNo="0" devices="tripinfo_VEH_6" vType="sumo_car" speedFactor="1.03" vaporized=""/>
    <tripinfo id="VEH_3" depart="5.00" departLane="-E4_1" departPos="5.10" departSpeed="0.00" departDelay="0.00" arrival="84.00" arrivalLane="-758088375#0_1" arrivalPos="24.98" arrivalSpeed="7.64" duration="79.00" routeLength="212.81" waitingTime="40.00" waitingCount="2" stopTime="0.00" timeLoss="56.32" rerouteNo="0" devices="tripinfo_VEH_3" vType="sumo_car" speedFactor="0.94" vaporized=""/>
    <tripinfo id="VEH_40" depart="69.00" departLane="183049957#0_1" departPos="5.10" departSpeed="0.00" departDelay="0.00" arrival="84.00" arrivalLane="331752492#2_1" arrivalPos="66.46" arrivalSpeed="13.51" duration="15.00" routeLength="112.21" waitingTime="0.00" waitingCount="0" stopTime="0.00" timeLoss="6.37" rerouteNo="0" devices="tripinfo_VEH_40" vType="sumo_car" speedFactor="1.10" vaporized=""/>
    <tripinfo id="VEH_46" depart="74.00" departLane="-1169441386_1" departPos="5.10" departSpeed="0.00" departDelay="0.00" arrival="93.00" arrivalLane="183419043#1_1" arrivalPos="11.49" arrivalSpeed="12.49" duration="19.00" routeLength="129.14" waitingTime="0.00" waitingCount="0" stopTime="0.00" timeLoss="9.01" rerouteNo="0" devices="tripinfo_VEH_46" vType="sumo_car" speedFactor="1.04" vaporized=""/>
    <tripinfo id="VEH_14" depart="23.00" departLane="921020465#1_1" departPos="5.10" departSpeed="0.00" departDelay="0.00" arrival="94.00" arrivalLane="E4_1" arrivalPos="50.96" arrivalSpeed="12.33" duration="71.00" routeLength="425.49" waitingTime="11.00" waitingCount="2" stopTime="0.00" timeLoss="33.78" rerouteNo="0" devices="tripinfo_VEH_14" vType="sumo_car" speedFactor="1.05" vaporized=""/>
    <tripinfo id="VEH_26" depart="47.00" departLane="-E4_1" departPos="5.10" departSpeed="0.00" departDelay="0.00" arrival="98.00" arrivalLane="-E2_1" arrivalPos="20.13" arrivalSpeed="10.16" duration="51.00" routeLength="88.22" waitingTime="31.00" waitingCount="1" stopTime="0.00" timeLoss="42.68" rerouteNo="0" devices="tripinfo_VEH_26" vType="sumo_car" speedFactor="0.83" vaporized=""/>
    <tripinfo id="VEH_55" depart="86.00" departLane="758088375#0_1" departPos="5.10" departSpeed="0.00" departDelay="0.00" arrival="98.00" arrivalLane="25973410#1_1" arrivalPos="32.08" arrivalSpeed="8.81" duration="12.00" routeLength="75.29" waitingTime="0.00" waitingCount="0" stopTime="0.00" timeLoss="3.76" rerouteNo="0" devices="tripinfo_VEH_55" vType="sumo_car" speedFactor="1.10" vaporized=""/>
    <tripinfo id="VEH_53" depart="85.00" departLane="183049957#0_1" departPos="5.10" departSpeed="0.00" departDelay="0.00" arrival="101.00" arrivalLane="331752492#2_1" arrivalPos="66.46" arrivalSpeed="13.34" duration="16.00" routeLength="112.21" waitingTime="0.00" waitingCount="0" stopTime="0.00" timeLoss="6.79" rerouteNo="0" devices="tripinfo_VEH_53" vType="sumo_car" speedFactor="1.17" vaporized=""/>
    <tripinfo id="VEH_23" depart="43.00" departLane="-25973410#1_1" departPos="5.10" departSpeed="0.00" departDelay="0.00" arrival="107.00" arrivalLane="694116204#2_1" arrivalPos="45.20" arrivalSpeed="13.50" duration="64.00" routeLength="221.68" waitingTime="33.00" waitingCount="1" stopTime="0.00" timeLoss="42.29" rerouteNo="0" devices="tripinfo_VEH_23" vType="sumo_car" speedFactor="1.01" vaporized=""/>
    <tripinfo id="VEH_35" depart="60.00" departLane="-25973410#1_1" departPos="5.10" departSpeed="0.00" departDelay="0.00" arrival="109.00" arrivalLane="694116204#2_1" arrivalPos="45.20" arrivalSpeed="13.45" duration="49.00" routeLength="221.68" waitingTime="18.00" waitingCount="1" stopTime="0.00" timeLoss="28.90" rerouteNo="0" devices="tripinfo_VEH_35" vType="sumo_car" speedFactor="1.17" vaporized=""/>
    <tripinfo id="VEH_39" depart="78.00" departLane="921020465#1_1" departPos="5.10" departSpeed="0.00" departDelay="12.00" arrival="113.00" arrivalLane="183419043#1_1" arrivalPos="11.49" arrivalSpeed="10.19" duration="35.00" routeLength="172.24" waitingTime="7.00" waitingCount="3" stopTime="0.00" timeLoss="21.69" rerouteNo="0" devices="tripinfo_VEH_39" vType="sumo_car" speedFactor="1.18" vaporized=""/>
    <tripinfo id="VEH_54" depart="85.00" departLane="-1169441386_1" departPos="5.10" departSpeed="0.00" departDelay="0.00" arrival="118.00" arrivalLane="694116204#2_2" arrivalPos="45.20" arrivalSpeed="13.29" duration="33.00" routeLength="175.49" waitingTime="6.00" waitingCount="1" stopTime="0.00" timeLoss="20.27" rerouteNo="0" devices="tripinfo_VEH_54" vType="sumo_car" speedFactor="1.02" vaporized=""/>
    <tripinfo id="VEH_42" depart="86.00" departLane="921020465#1_1" departPos="5.10" departSpeed="0.00" departDelay="17.00" arrival="120.00" arrivalLane="183419043#1_1" arrivalPos="11.49" arrivalSpeed="10.71" duration="34.00" routeLength="172.24" waitingTime="5.00" waitingCount="2" stopTime="0.00" timeLoss="20.29" rerouteNo="0" devices="tripinfo_VEH_42" vType="sumo_car" speedFactor="1.03" vaporized=""/>
    <tripinfo id="VEH_44" depart="91.00" departLane="921020465#1_1" departPos="5.10" departSpeed="0.00" departDelay="20.00" arrival="122.00" arrivalLane="183419043#1_1" arrivalPos="11.49" arrivalSpeed="11.22" duration="31.00" routeLength="172.24" waitingTime="3.00" waitingCount="2" stopTime="0.00" timeLoss="17.38" rerouteNo="0" devices="tripinfo_VEH_44" vType="sumo_car" speedFactor="1.09" vaporized=""/>
    <tripinfo id="VEH_24" depart="44.00" departLane="23320502_1" departPos="5.10" departSpeed="0.00" departDelay="0.00" arrival="123.00" arrivalLane="25973410#1_1" arrivalPos="32.08" arrivalSpeed="8.09" duration="79.00" routeLength="524.68" waitingTime="4.00" waitingCount="1" stopTime="0.00" timeLoss="21.12" rerouteNo="0" devices="tripinfo_VEH_24" vType="sumo_car" speedFactor="0.97" vaporized=""/>
    <tripinfo id="VEH_68" depart="107.00" departLane="183049957#0_1" departPos="6.60" departSpeed="0.00" departDelay="0.00" arrival="126.00" arrivalLane="331752492#2_1" arrivalPos="66.46" arrivalSpeed="10.89" duration="19.00" routeLength="110.71" waitingTime="0.00" waitingCount="0" stopTime="0.00" timeLoss="8.64" rerouteNo="0" devices="tripinfo_VEH_68" vType="sumo_transporter" speedFactor="0.95" vaporized=""/>
    <tripinfo id="VEH_75" depart="112.00" departLane="183049957#0_1" departPos="5.10" departSpeed="0.00" departDelay="1.00" arrival="128.00" arrivalLane="331752492#2_1" arrivalPos="66.46" arrivalSpeed="13.29" duration="16.00" routeLength="112.21" waitingTime="0.00" waitingCount="0" stopTime="0.00" timeLoss="7.10" rerouteNo="0" devices="tripinfo_VEH_75" vType="sumo_car" speedFactor="1.06" vaporized=""/>
    <tripinfo id="VEH_79" depart="116.00" departLane="183049957#0_1" departPos="6.60" departSpeed="0.00" departDelay="3.00" arrival="134.00" arrivalLane="331752492#2_1" arrivalPos="66.46" arrivalSpeed="11.06" duration="18.00" routeLength="110.71" waitingTime="0.00" waitingCount="0" stopTime="0.00" timeLoss="6.85" rerouteNo="0" devices="tripinfo_VEH_79" vType="sumo_transporter" speedFactor="0.99" vaporized=""/>
    <tripinfo id="VEH_82" depart="121.00" departLane="183049957#0_1" departPos="5.10" departSpeed="0.00" departDelay="3.00" arrival="137.00" arrivalLane="331752492#2_1" arrivalPos="66.46" arrivalSpeed="13.49" duration="16.00" routeLength="112.21" waitingTime="0.00" waitingCount="0" stopTime="0.00" timeLoss="6.87" rerouteNo="0" devices="tripinfo_VEH_82" vType="sumo_car" speedFactor="1.03" vaporized=""/>
    <tripinfo id="VEH_18" depart="28.00" departLane="921020465#1_1" departPos="5.10" departSpeed="0.00" departDelay="0.00" arrival="139.00" arrivalLane="E4_1" arrivalPos="50.96" arrivalSpeed="11.92" duration="111.00" routeLength="425.49" waitingTime="43.00" waitingCount="3" stopTime="0.00" timeLoss="67.68" rerouteNo="0" devices="tripinfo_VEH_18" vType="sumo_car" speedFactor="0.88" vaporized=""/>
    <tripinfo id="VEH_45" depart="94.00" departLane="921020465#1_1" departPos="15.10" departSpeed="0.00" departDelay="21.00" arrival="142.00" arrivalLane="183419043#1_1" arrivalPos="11.49" arrivalSpeed="7.99" duration="48.00" routeLength="162.24" waitingTime="6.00" waitingCount="3" stopTime="0.00" timeLoss="31.32" rerouteNo="0" devices="tripinfo_VEH_45" vType="sumo_truck" speedFactor="1.02" vaporized=""/>
    <tripinfo id="VEH_88" depart="125.00" departLane="183049957#0_1" departPos="5.10" departSpeed="0.00" departDelay="1.00" arrival="142.00" arrivalLane="331752492#2_1" arrivalPos="66.46" arrivalSpeed="13.34" duration="17.00" routeLength="112.21" waitingTime="0.00" waitingCount="0" stopTime="0.00" timeLoss="7.97" rerouteNo="0" devices="tripinfo_VEH_88" vType="sumo_car" speedFactor="1.00" vaporized=""/>
    <tripinfo id="VEH_12" depart="22.00" departLane="1162834479#1_1" departPos="0.20" departSpeed="0.00" departDelay="0.00" arrival="149.00" arrivalLane="694116204#2_2" arrivalPos="45.20" arrivalSpeed="13.28" duration="127.00" routeLength="992.43" waitingTime="1.00" waitingCount="1" stopTime="0.00" timeLoss="28.10" rerouteNo="0" devices="tripinfo_VEH_12" vType="sumo_car" speedFactor="1.09" vaporized=""/>
    <tripinfo id="VEH_2" depart="1.00" departLane="-E4_1" departPos="6.60" departSpeed="0.00" departDelay="0.00" arrival="150.00" arrivalLane="-1162834479#1_1" arrivalPos="0.20" arrivalSpeed="9.38" duration="149.00" routeLength="744.51" waitingTime="41.00" waitingCount="2" stopTime="0.00" timeLoss="65.74" rerouteNo="0" devices="tripinfo_VEH_2" vType="sumo_transporter" speedFactor="1.03" vaporized=""/>
    <tripinfo id="VEH_49" depart="107.00" departLane="921020465#1_1" departPos="5.10" departSpeed="0.00" departDelay="29.00" arrival="151.00" arrivalLane="183419043#1_1" arrivalPos="11.49" arrivalSpeed="10.13" duration="44.00" routeLength="172.24" waitingTime="3.00" waitingCount="1" stopTime="0.00" timeLoss="29.22" rerouteNo="0" devices="tripinfo_VEH_49" vType="sumo_car" speedFactor="0.90" vaporized=""/>
    <tripinfo id="VEH_98" depart="135.00" departLane="183049957#0_1" departPos="5.10" departSpeed="0.00" departDelay="0.00" arrival="151.00" arrivalLane="331752492#2_1" arrivalPos="66.46" arrivalSpeed="13.48" duration="16.00" routeLength="112.21" waitingTime="0.00" waitingCount="0" stopTime="0.00" timeLoss="7.18" rerouteNo="0" devices="tripinfo_VEH_98" vType="sumo_car" speedFactor="1.01" vaporized=""/>
    <tripinfo id="VEH_101" depart="138.00" departLane="183049957#0_1" departPos="2.30" departSpeed="0.00" departDelay="1.00" arrival="153.00" arrivalLane="331752492#2_1" arrivalPos="66.46" arrivalSpeed="15.10" duration="15.00" routeLength="115.01" waitingTime="0.00" waitingCount="0" stopTime="0.00" timeLoss="6.62" rerouteNo="0" devices="tripinfo_VEH_101" vType="sumo_motorcycle" speedFactor="1.10" vaporized=""/>
    <tripinfo id="VEH_103" depart="139.00" departLane="-1169441386_1" departPos="5.10" departSpeed="0.00" departDelay="0.00" arrival="159.00" arrivalLane="694116204#2_2" arrivalPos="45.20" arrivalSpeed="12.56" duration="20.00" routeLength="175.49" waitingTime="0.00" waitingCount="0" stopTime="0.00" timeLoss="6.22" rerouteNo="0" devices="tripinfo_VEH_103" vType="sumo_car" speedFactor="0.96" vaporized=""/>
    <tripinfo id="VEH_104" depart="142.00" departLane="-1169441386_1" departPos="5.10" departSpeed="0.00" departDelay="1.00" arrival="161.00" arrivalLane="694116204#2_2" arrivalPos="45.20" arrivalSpeed="12.76" duration="19.00" routeLength="175.49" waitingTime="0.00" waitingCount="0" stopTime="0.00" timeLoss="5.81" rerouteNo="0" devices="tripinfo_VEH_104" vType="sumo_car" speedFactor="0.97" vaporized=""/>
    <tripinfo id="VEH_105" depart="144.00" departLane="-1169441386_1" departPos="5.10" departSpeed="0.00" departDelay="2.00" arrival="163.00" arrivalLane="183419043#1_1" arrivalPos="11.49" arrivalSpeed="13.20" duration="19.00" routeLength="129.14" waitingTime="0.00" waitingCount="0" stopTime="0.00" timeLoss="8.36" rerouteNo="0" devices="tripinfo_VEH_105" vType="sumo_car" speedFactor="0.95" vaporized=""/>
    <tripinfo id="VEH_107" depart="148.00" departLane="-1169441386_1" departPos="5.10" departSpeed="0.00" departDelay="4.00" arrival="167.00" arrivalLane="694116204#2_2" arrivalPos="45.20" arrivalSpeed="13.60" duration="19.00" routeLength="175.49" waitingTime="0.00" waitingCount="0" stopTime="0.00" timeLoss="5.63" rerouteNo="0" devices="tripinfo_VEH_107" vType="sumo_car" speedFactor="1.07" vaporized=""/>
    <tripinfo id="VEH_112" depart="150.00" departLane="183049957#0_1" departPos="5.10" departSpeed="0.00" departDelay="0.00" arrival="167.00" arrivalLane="331752492#2_1" arrivalPos="66.46" arrivalSpeed="12.41" duration="17.00" routeLength="112.21" waitingTime="0.00" waitingCount="0" stopTime="0.00" timeLoss="6.92" rerouteNo="0" devices="tripinfo_VEH_112" vType="sumo_car" speedFactor="0.93" vaporized=""/>
    <tripinfo id="VEH_110" depart="153.00" departLane="-1169441386_1" departPos="5.10" departSpeed="0.00" departDelay="6.00" arrival="171.00" arrivalLane="183419043#1_1" arrivalPos="11.49" arrivalSpeed="13.31" duration="18.00" routeLength="129.14" waitingTime="0.00" waitingCount="0" stopTime="0.00" timeLoss="7.81" rerouteNo="0" devices="tripinfo_VEH_110" vType="sumo_car" speedFactor="1.06" vaporized=""/>
    <tripinfo id="VEH_84" depart="122.00" departLane="-E4_1" departPos="5.10" departSpeed="0.00" departDelay="0.00" arrival="174.00" arrivalLane="-758088375#0_1" arrivalPos="24.98" arrivalSpeed="8.01" duration="52.00" routeLength="212.81" waitingTime="14.00" waitingCount="2" stopTime="0.00" timeLoss="31.21" rerouteNo="0" devices="tripinfo_VEH_84" vType="sumo_car" speedFactor="1.02" vaporized=""/>
    <tripinfo id="VEH_4" depart="9.00" departLane="-183419042#1_1" departPos="2.30" departSpeed="0.00" departDelay="0.00" arrival="177.00" arrivalLane="-E13_1" arrivalPos="59.59" arrivalSpeed="13.13" duration="168.00" routeLength="1154.52" waitingTime="21.00" waitingCount="3" stopTime="0.00" timeLoss="50.71" rerouteNo="0" devices="tripinfo_VEH_4" vType="sumo_motorcycle" speedFactor="1.01" vaporized=""/>
    <tripinfo id="VEH_89" depart="126.00" departLane="-E4_1" departPos="6.60" departSpeed="0.00" departDelay="1.00" arrival="177.00" arrivalLane="-758088375#0_1" arrivalPos="24.98" arrivalSpeed="8.39" duration="51.00" routeLength="211.31" waitingTime="10.00" waitingCount="1" stopTime="0.00" timeLoss="28.38" rerouteNo="0" devices="tripinfo_VEH_89" vType="sumo_transporter" speedFactor="1.02" vaporized=""/>
    <tripinfo id="VEH_100" depart="137.00" departLane="-183419042#1_1" departPos="5.10" departSpeed="0.00" departDelay="0.00" arrival="178.00" arrivalLane="331752492#2_1" arrivalPos="66.46" arrivalSpeed="13.76" duration="41.00" routeLength="268.79" waitingTime="6.00" waitingCount="1" stopTime="0.00" timeLoss="21.59" rerouteNo="0" devices="tripinfo_VEH_100" vType="sumo_car" speedFactor="1.12" vaporized=""/>
    <tripinfo id="VEH_8" depart="15.00" departLane="-183419042#1_1" departPos="5.10" departSpeed="0.00" departDelay="0.00" arrival="180.00" arrivalLane="-E13_1" arrivalPos="59.59" arrivalSpeed="13.80" duration="165.00" routeLength="1151.72" waitingTime="19.00" waitingCount="2" stopTime="0.00" timeLoss="49.95" rerouteNo="0" devices="tripinfo_VEH_8" vType="sumo_car" speedFactor="1.05" vaporized=""/>
    <tripinfo id="VEH_21" depart="35.00" departLane="921020465#1_1" departPos="5.10" departSpeed="0.00" departDelay="0.00" arrival="181.00" arrivalLane="-E13_1" arrivalPos="59.59" arrivalSpeed="13.19" duration="146.00" routeLength="1106.96" waitingTime="0.00" waitingCount="0" stopTime="0.00" timeLoss="43.50" rerouteNo="0" devices="tripinfo_VEH_21" vType="sumo_car" speedFactor="1.16" vaporized=""/>
    <tripinfo id="VEH_28" depart="50.00" departLane="1162834479#1_1" departPos="0.20" departSpeed="0.00" departDelay="0.00" arrival="182.00" arrivalLane="183419043#1_1" arrivalPos="11.49" arrivalSpeed="11.06" duration="132.00" routeLength="931.93" waitingTime="1.00" waitingCount="1" stopTime="0.00" timeLoss="19.59" rerouteNo="0" devices="tripinfo_VEH_28" vType="sumo_car" speedFactor="0.92" vaporized=""/>
    <tripinfo id="VEH_32" depart="58.00" departLane="921020465#1_1" departPos="5.10" departSpeed="0.00" departDelay="2.00" arrival="184.00" arrivalLane="E4_1" arrivalPos="50.96" arrivalSpeed="13.10" duration="126.00" routeLength="425.49" waitingTime="59.00" waitingCount="2" stopTime="0.00" timeLoss="90.35" rerouteNo="0" devices="tripinfo_VEH_32" vType="sumo_car" speedFactor="1.18" vaporized=""/>
    <tripinfo id="VEH_106" depart="144.00" departLane="758088375#0_1" departPos="5.10" departSpeed="0.00" departDelay="0.00" arrival="186.00" arrivalLane="25973410#1_1" arrivalPos="32.08" arrivalSpeed="7.04" duration="42.00" routeLength="75.29" waitingTime="23.00" waitingCount="1" stopTime="0.00" timeLoss="31.09" rerouteNo="0" devices="tripinfo_VEH_106" vType="sumo_car" speedFactor="0.89" vaporized=""/>
    <tripinfo id="VEH_130" depart="171.00" departLane="183049957#0_1" departPos="5.10" departSpeed="0.00" departDelay="0.00" arrival="187.00" arrivalLane="331752492#2_1" arrivalPos="66.46" arrivalSpeed="13.54" duration="16.00" routeLength="112.21" waitingTime="0.00" waitingCount="0" stopTime="0.00" timeLoss="6.63" rerouteNo="0" devices="tripinfo_VEH_130" vType="sumo_car" speedFactor="1.12" vaporized=""/>
    <tripinfo id="VEH_31" depart="53.00" departLane="1162834479#1_1" departPos="0.20" departSpeed="0.00" departDelay="0.00" arrival="190.00" arrivalLane="694116204#2_1" arrivalPos="45.20" arrivalSpeed="12.48" duration="137.00" routeLength="992.43" waitingTime="0.00" waitingCount="0" stopTime="0.00" timeLoss="22.73" rerouteNo="0" devices="tripinfo_VEH_31" vType="sumo_car" speedFactor="0.93" vaporized=""/>
    <tripinfo id="VEH_19" depart="31.00" departLane="921020465#1_1" departPos="5.10" departSpeed="0.00" departDelay="2.00" arrival="193.00" arrivalLane="-1162834479#1_1" arrivalPos="0.20" arrivalSpeed="10.89" duration="162.00" routeLength="1054.84" waitingTime="10.00" waitingCount="2" stopTime="0.00" timeLoss="42.59" rerouteNo="0" devices="tripinfo_VEH_19" vType="sumo_car" speedFactor="0.94" vaporized=""/>
    <tripinfo id="VEH_136" depart="182.00" departLane="183049957#0_1" departPos="6.60" departSpeed="0.00" departDelay="0.00" arrival="201.00" arrivalLane="331752492#2_1" arrivalPos="66.46" arrivalSpeed="11.02" duration="19.00" routeLength="110.71" waitingTime="0.00" waitingCount="0" stopTime="0.00" timeLoss="8.18" rerouteNo="0" devices="tripinfo_VEH_136" vType="sumo_transporter" speedFactor="1.11" vaporized=""/>
    <tripinfo id="VEH_138" depart="187.00" departLane="183049957#0_1" departPos="5.10" departSpeed="0.00" departDelay="3.00" arrival="203.00" arrivalLane="331752492#2_1" arrivalPos="66.46" arrivalSpeed="13.40" duration="16.00" routeLength="112.21" waitingTime="0.00" waitingCount="0" stopTime="0.00" timeLoss="6.76" rerouteNo="0" devices="tripinfo_VEH_138" vType="sumo_car" speedFactor="1.12" vaporized=""/>
    <tripinfo id="VEH_62" depart="99.00" departLane="E13_1" departPos="5.10" departSpeed="0.00" departDelay="0.00" arrival="207.00" arrivalLane="E4_1" arrivalPos="50.96" arrivalSpeed="12.84" duration="108.00" routeLength="789.50" waitingTime="7.00" waitingCount="1" stopTime="0.00" timeLoss="27.91" rerouteNo="0" devices="tripinfo_VEH_62" vType="sumo_car" speedFactor="1.08" vaporized=""/>
    <tripinfo id="VEH_140" depart="191.00" departLane="183049957#0_1" departPos="5.10" departSpeed="0.00" departDelay="2.00" arrival="207.00" arrivalLane="331752492#2_1" arrivalPos="66.46" arrivalSpeed="13.77" duration="16.00" routeLength="112.21" waitingTime="0.00" waitingCount="0" stopTime="0.00" timeLoss="7.05" rerouteNo="0" devices="tripinfo_VEH_140" vType="sumo_car" speedFactor="1.00" vaporized=""/>
    <tripinfo id="VEH_142" depart="195.00" departLane="183049957#0_1" departPos="5.10" departSpeed="0.00" departDelay="4.00" arrival="210.00" arrivalLane="331752492#2_1" arrivalPos="66.46" arrivalSpeed="13.30" duration="15.00" routeLength="112.21" waitingTime="0.00" waitingCount="0" stopTime="0.00" timeLoss="6.43" rerouteNo="0" devices="tripinfo_VEH_142" vType="sumo_car" speedFactor="1.11" vaporized=""/>
    <tripinfo id="VEH_143" depart="192.00" departLane="-1169441386_1" departPos="5.10" departSpeed="0.00" departDelay="0.00" arrival="211.00" arrivalLane="694116204#2_2" arrivalPos="45.20" arrivalSpeed="13.57" duration="19.00" routeLength="175.49" waitingTime="0.00" waitingCount="0" stopTime="0.00" timeLoss="6.14" rerouteNo="0" devices="tripinfo_VEH_143" vType="sumo_car" speedFactor="1.16" vaporized=""/>
    <tripinfo id="VEH_144" depart="195.00" departLane="-1169441386_1" departPos="5.10" departSpeed="0.00" departDelay="3.00" arrival="214.00" arrivalLane="183419043#1_1" arrivalPos="11.49" arrivalSpeed="12.10" duration="19.00" routeLength="129.14" waitingTime="0.00" waitingCount="0" stopTime="0.00" timeLoss="8.41" rerouteNo="0" devices="tripinfo_VEH_144" vType="sumo_car" speedFactor="0.94" vaporized=""/>
    <tripinfo id="VEH_149" depart="201.00" departLane="183049957#0_1" departPos="5.10" departSpeed="0.00" departDelay="0.00" arrival="217.00" arrivalLane="331752492#2_1" arrivalPos="66.46" arrivalSpeed="13.73" duration="16.00" routeLength="112.21" waitingTime="0.00" waitingCount="0" stopTime="0.00" timeLoss="6.80" rerouteNo="0" devices="tripinfo_VEH_149" vType="sumo_car" speedFactor="1.00" vaporized=""/>
    <tripinfo id="VEH_52" depart="81.00" departLane="758088375#0_1" departPos="5.10" departSpeed="0.00" departDelay="0.00" arrival="224.00" arrivalLane="-E13_1" arrivalPos="59.59" arrivalSpeed="11.79" duration="143.00" routeLength="892.87" waitingTime="15.00" waitingCount="1" stopTime="0.00" timeLoss="30.18" rerouteNo="0" devices="tripinfo_VEH_52" vType="sumo_car" speedFactor="0.85" vaporized=""/>
    <tripinfo id="VEH_27" depart="48.00" departLane="921020465#1_1" departPos="6.60" departSpeed="0.00" departDelay="0.00" arrival="230.00" arrivalLane="-E13_1" arrivalPos="59.59" arrivalSpeed="11.10" duration="182.00" routeLength="1105.46" waitingTime="28.00" waitingCount="2" stopTime="0.00" timeLoss="54.51" rerouteNo="0" devices="tripinfo_VEH_27" vType="sumo_transporter" speedFactor="0.94" vaporized=""/>
    <tripinfo id="VEH_60" depart="96.00" departLane="1162834479#1_1" departPos="0.20" departSpeed="0.00" departDelay="0.00" arrival="231.00" arrivalLane="183419043#1_1" arrivalPos="11.49" arrivalSpeed="10.21" duration="135.00" routeLength="931.93" waitingTime="3.00" waitingCount="1" stopTime="0.00" timeLoss="34.14" rerouteNo="0" devices="tripinfo_VEH_60" vType="sumo_car" speedFactor="1.02" vaporized=""/>
    <tripinfo id="VEH_29" depart="51.00" departLane="921020465#1_1" departPos="5.10" departSpeed="0.00" departDelay="1.00" arrival="232.00" arrivalLane="-E13_1" arrivalPos="59.59" arrivalSpeed="13.03" duration="181.00" routeLength="1106.96" waitingTime="27.00" waitingCount="3" stopTime="0.00" timeLoss="59.55" rerouteNo="0" devices="tripinfo_VEH_29" vType="sumo_car" speedFactor="0.95" vaporized=""/>
    <tripinfo id="VEH_56" depart="87.00" departLane="758088375#0_1" departPos="6.60" departSpeed="0.00" departDelay="0.00" arrival="232.00" arrivalLane="E4_1" arrivalPos="50.96" arrivalSpeed="9.53" duration="145.00" routeLength="209.90" waitingTime="99.00" waitingCount="3" stopTime="0.00" timeLoss="123.47" rerouteNo="0" devices="tripinfo_VEH_56" vType="sumo_transporter" speedFactor="1.00" vaporized=""/>
    <tripinfo id="VEH_30" depart="55.00" departLane="921020465#1_1" departPos="5.10" departSpeed="0.00" departDelay="2.00" arrival="233.00" arrivalLane="-E13_1" arrivalPos="59.59" arrivalSpeed="13.67" duration="178.00" routeLength="1106.96" waitingTime="25.00" waitingCount="2" stopTime="0.00" timeLoss="73.85" rerouteNo="0" devices="tripinfo_VEH_30" vType="sumo_car" speedFactor="1.13" vaporized=""/>